ITEM: TIMESTEP
12
ITEM: NUMBER OF ATOMS
37
ITEM: BOX BOUNDS pp pp pp
-22.9355006377 82.9355006377
-54.8396634112 54.8396634112
-43.9979453846 63.9979453846
ITEM: ATOMS id type x y z Occupancy
105252 1 -3.94918 -1.7727144 -18.95284 0
105253 1 -2.3284086 -0.325414 -23.21508 0
105254 1 0.370952 -3.245298 -17.55028 0
105255 1 3.2576176 -0.306716 -17.5869 0
105256 1 3.31509167 2.607927 -20.41668333 0
105257 1 18.0649375 -17.6505125 -34.3312625 0
105258 1 1.7322652 1.137246 -16.16086 0
105259 1 -2.412412 -3.249112 -20.35918 0
105260 1 0.507931 2.59647583 -23.23918333 0
105261 1 -1.1422824 -1.767642 -16.12408 0
105262 1 -3.8636394 1.1209316 -21.80352 0
105270 1 -2.43593845 2.5957608 -20.424235 0
105284 1 3.352325 -0.245735 -20.367775 0
105292 1 -0.96294507 1.14211122 -21.82670889 0
105294 1 0.511992 -0.25671 -23.212 0
105320 1 1.94823208 1.16669292 -21.82950833 0
105330 1 1.938851 -1.7407485 -21.776725 0
105352 1 -1.047889 4.09924 -19.039325 0
105360 1 0.48235733 2.63542667 -20.48103333 0
105388 1 0.423097 -3.23881 -20.3201 0
105423 1 -2.4877496 -0.34386187 -20.35970667 0
105429 1 24.9841 -17.6273 33.5497 2
105430 1 -0.9153813 -1.7820355 -21.771905 0
105441 1 -2.5767292 -0.3299132 -17.537485 0
105456 1 -3.96001 1.0829495 -19.01925 0
105460 1 1.8653323 -1.7807945 -18.99149 0
105461 1 -1.05710667 -1.83347 -18.93464 0
105465 1 0.33765187 -0.35038067 -17.54412667 0
105474 1 1.87051285 1.14326733 -19.00742222 0
105475 1 -2.54383075 2.56807075 -17.6066 0
105477 1 0.3494276 2.5968605 -17.633255 0
105483 1 -1.116436 1.0872325 -16.164075 0
105487 1 0.47712148 -0.33598772 -20.39891413 0
105488 1 -1.05952749 1.14303799 -18.99912619 0
105489 1 -10.492585 21.26283809 9.31824643 2
105490 1 19.08944714 -17.50066571 33.56947429 2
105492 1 22.06638889 -17.51721111 33.505975 2
