ITEM: TIMESTEP
13
ITEM: NUMBER OF ATOMS
105480
ITEM: BOX BOUNDS pp pp pp
-5.3034967805699999e+01 5.3034967805699999e+01
-5.4942708549999999e+01 5.4942708549999999e+01
-5.4099408913600001e+01 5.4099408913600001e+01
ITEM: ATOMS id type x y z
2 1 -50.7158 -52.5232 -51.7279
1 1 -52.0613 -53.9471 -53.2102
3 1 -49.2287 -53.9439 -53.2041
4 1 -47.9024 -52.5127 -51.742
7 1 -45.1323 -52.4312 -51.7872
104771 1 -46.3933 -53.9694 -53.2198
104773 1 -43.835 -53.811 -53.3885
8073 1 -42.3713 -52.3926 -51.9663
104774 1 -41.12 -53.7168 -53.6342
8075 1 -39.5902 -52.3598 -52.1563
104775 1 -38.2548 -53.6891 -53.7614
8077 1 -36.7462 -52.3341 -52.2539
8079 1 -35.3579 -53.6832 -53.795
8080 1 -33.8674 -52.3143 -52.303
8081 1 -32.4596 -53.6795 -53.8136
8082 1 -30.9814 -52.2932 -52.3356
24401 1 -28.0994 -52.2704 -52.3565
8548 1 -29.5283 -53.7704 -50.9397
104777 1 -29.5659 -53.6702 -53.8277
24404 1 -25.2202 -52.2458 -52.367
24851 1 -26.6537 -53.7479 -50.9513
104778 1 -26.6772 -53.6522 -53.8375
24853 1 -23.7829 -53.7241 -50.9511
24405 1 -22.3449 -52.2228 -52.3673
24406 1 -20.916 -53.6117 -53.8344
24855 1 -20.9164 -53.7011 -50.9416
104779 1 -23.7949 -53.6305 -53.8411
24407 1 -19.4675 -52.2066 -52.3547
24408 1 -18.037 -53.5983 -53.8174
24858 1 -18.0465 -53.6832 -50.9211
24409 1 -16.5899 -52.1933 -52.3346
24410 1 -15.159 -53.5877 -53.7944
24411 1 -13.7095 -52.1837 -52.3116
40640 1 -12.2753 -53.5797 -53.7683
40638 1 -10.8234 -52.1771 -52.2845
40639 1 -9.38318 -53.5727 -53.7372
40641 1 -7.93152 -52.169 -52.2529
40642 1 -6.48777 -53.5658 -53.7026
40643 1 -5.03374 -52.1613 -52.2207
40644 1 -3.59052 -53.5613 -53.6689
40645 1 -2.13243 -52.1569 -52.1899
40646 1 -0.693497 -53.5638 -53.6357
40647 1 0.762604 -52.1621 -52.1551
40649 1 2.20085 -53.5727 -53.5989
40648 1 3.65161 -52.1721 -52.1158
56733 1 5.09138 -53.5849 -53.56
56732 1 6.53924 -52.1836 -52.0778
56735 1 7.98029 -53.5981 -53.523
56734 1 9.4262 -52.1947 -52.0425
56736 1 10.8684 -53.6109 -53.4884
56737 1 12.3139 -52.2061 -52.0105
56738 1 13.7574 -53.6243 -53.456
56739 1 15.2024 -52.2181 -51.9805
56740 1 16.6467 -53.639 -53.4253
56741 1 18.0903 -52.231 -51.9516
56742 1 19.5362 -53.6535 -53.3964
72823 1 22.4212 -53.6708 -53.3733
72824 1 20.9774 -52.2452 -51.924
72825 1 23.859 -52.2632 -51.9048
72827 1 25.3045 -53.6915 -53.3527
72826 1 26.7398 -52.2841 -51.8843
72828 1 28.1865 -53.7148 -53.3304
72829 1 29.6168 -52.3055 -51.861
72830 1 31.0653 -53.7383 -53.3094
72831 1 32.4954 -52.33 -51.8451
72832 1 33.9458 -53.7648 -53.2944
72833 1 35.373 -52.3579 -51.8314
89587 1 36.8264 -53.7941 -53.2819
89267 1 38.2486 -52.3889 -51.8184
89266 1 39.7051 -53.8249 -53.2712
89270 1 41.1198 -52.4202 -51.8058
89269 1 42.5805 -53.8548 -53.2601
89271 1 45.4521 -53.8825 -53.2475
89272 1 43.9859 -52.4506 -51.7916
89274 1 48.3165 -53.9076 -53.2351
89273 1 46.8461 -52.4771 -51.7757
89275 1 49.6969 -52.4983 -51.7596
89278 1 51.1696 -53.9298 -53.2234
89279 1 52.5335 -52.5155 -51.7426
8 1 -52.1025 -51.095 -53.1841
10 1 -50.7671 -49.6655 -51.7008
5 1 -49.2978 -51.1033 -53.1656
12 1 -47.9898 -49.6377 -51.6834
13 1 -46.548 -51.0454 -53.1595
14 1 -45.1862 -49.5751 -51.726
104772 1 -43.772 -50.9396 -53.2504
8087 1 -41.0433 -50.9082 -53.4882
8085 1 -42.3689 -49.5242 -51.8709
8090 1 -38.2213 -50.8789 -53.6231
8088 1 -39.5774 -49.5068 -52.0417
8093 1 -35.3403 -50.8529 -53.6834
8091 1 -36.7338 -49.4832 -52.1508
8094 1 -33.858 -49.451 -52.2182
8095 1 -32.4476 -50.8275 -53.7226
8097 1 -30.973 -49.4173 -52.266
8098 1 -29.5536 -50.7995 -53.7538
24413 1 -28.0898 -49.386 -52.2971
24412 1 -26.6658 -50.7727 -53.7749
24415 1 -25.2095 -49.3585 -52.3148
24414 1 -23.7818 -50.7477 -53.7858
24417 1 -20.8962 -50.7303 -53.7824
24416 1 -22.3305 -49.3373 -52.3196
24419 1 -18.0119 -50.7177 -53.7692
24418 1 -19.4478 -49.3234 -52.309
24421 1 -15.1278 -50.7097 -53.7491
24420 1 -16.5632 -49.3141 -52.2896
24422 1 -13.6769 -49.3086 -52.2663
40652 1 -12.2414 -50.7064 -53.7249
40650 1 -10.7897 -49.3053 -52.2405
40651 1 -9.35158 -50.7043 -53.6967
40654 1 -6.45768 -50.7021 -53.6652
40653 1 -7.89864 -49.3034 -52.2104
40656 1 -5.00268 -49.301 -52.1796
40655 1 -3.55982 -50.7002 -53.633
40657 1 -2.10254 -49.2987 -52.1493
40658 1 -0.660107 -50.7016 -53.6006
40659 1 0.796136 -49.3004 -52.1172
40660 1 2.2355 -50.7096 -53.5649
40661 1 3.68674 -49.309 -52.0805
56743 1 5.12612 -50.7212 -53.5276
56746 1 8.01325 -50.7341 -53.4922
56744 1 6.57374 -49.3189 -52.0447
56748 1 10.8997 -50.7471 -53.4589
56747 1 9.45852 -49.3299 -52.0114
56749 1 13.7875 -50.7601 -53.4277
56750 1 12.3445 -49.3411 -51.981
56752 1 16.6762 -50.7737 -53.3984
56753 1 15.2321 -49.3523 -51.9525
56754 1 19.564 -50.7887 -53.371
56755 1 18.1197 -49.3644 -51.925
72834 1 22.4469 -50.8057 -53.3499
72835 1 21.0063 -49.3797 -51.8988
72836 1 23.8858 -49.3976 -51.8805
72837 1 25.328 -50.8269 -53.3314
72838 1 26.7609 -49.4177 -51.8622
72839 1 28.2067 -50.8493 -53.311
72840 1 29.6349 -49.4397 -51.8424
72841 1 31.0828 -50.8741 -53.2915
72842 1 32.5108 -49.464 -51.8287
72843 1 33.9607 -50.9018 -53.2775
89698 1 36.8376 -50.9334 -53.266
72844 1 35.3847 -49.4931 -51.8161
89280 1 39.7105 -50.9666 -53.2563
89281 1 38.2548 -49.526 -51.8046
89283 1 42.5795 -50.9994 -53.2462
89284 1 41.1182 -49.5599 -51.7927
89286 1 45.4436 -51.03 -53.2342
89287 1 43.9764 -49.5937 -51.7785
89289 1 48.2992 -51.0557 -53.2208
89288 1 46.8262 -49.6233 -51.7612
89290 1 49.667 -49.647 -51.742
89292 1 51.1434 -51.077 -53.2057
89293 1 52.496 -49.6612 -51.7218
9 1 -52.1452 -48.2276 -53.1612
17 1 -50.8257 -46.7946 -51.6695
16 1 -52.2085 -45.3713 -53.1282
11 1 -49.3735 -48.214 -53.1285
19 1 -48.0619 -46.7718 -51.6417
15 1 -46.6324 -48.1654 -53.0958
18 1 -49.418 -45.3371 -53.1111
20 1 -46.7065 -45.3196 -53.0839
8086 1 -43.8348 -48.0821 -53.1932
21 1 -45.255 -46.7279 -51.6863
8100 1 -43.9484 -45.2558 -53.1838
8089 1 -41.0562 -48.0603 -53.3816
8099 1 -42.4323 -46.6794 -51.8136
8103 1 -38.2202 -48.0423 -53.5093
8101 1 -39.6003 -46.663 -51.9552
8104 1 -36.7439 -46.6305 -52.0663
8092 1 -35.3429 -48.0061 -53.5885
8107 1 -33.8626 -46.5846 -52.1479
8096 1 -32.4484 -47.9641 -53.6456
8110 1 -30.9716 -46.5381 -52.2107
8109 1 -29.5503 -47.9241 -53.6915
24424 1 -28.0845 -46.498 -52.2522
24423 1 -26.6583 -47.8896 -53.7208
24427 1 -25.2016 -46.4677 -52.275
24426 1 -23.7708 -47.8639 -53.738
24429 1 -22.3183 -46.4505 -52.2799
24430 1 -20.881 -47.8488 -53.736
24433 1 -17.9902 -47.841 -53.7224
24431 1 -19.4293 -46.4426 -52.2671
24436 1 -15.0989 -47.838 -53.7017
24434 1 -16.5376 -46.4395 -52.2451
40662 1 -12.2076 -47.8385 -53.678
24437 1 -13.6445 -46.4388 -52.2198
40663 1 -9.31498 -47.8418 -53.6506
40664 1 -10.7512 -46.4404 -52.193
40668 1 -6.42091 -47.8448 -53.62
40667 1 -7.85848 -46.4435 -52.163
40671 1 -4.96424 -46.4455 -52.1322
40670 1 -3.52407 -47.8462 -53.5888
40675 1 -2.06769 -46.4459 -52.1025
40673 1 -0.625406 -47.8475 -53.5579
40676 1 0.828602 -46.4464 -52.0728
40677 1 2.27147 -47.8519 -53.5259
40678 1 3.72043 -46.4494 -52.0413
56745 1 5.16176 -47.8606 -53.4921
56756 1 6.60785 -46.4558 -52.0095
56758 1 8.04826 -47.8713 -53.4591
56760 1 9.49283 -46.4651 -51.9784
56751 1 10.9333 -47.8838 -53.4274
56761 1 13.8198 -47.8963 -53.3978
56764 1 12.3774 -46.476 -51.9496
56767 1 15.2633 -46.487 -51.9222
56765 1 16.7073 -47.9092 -53.37
56768 1 19.5947 -47.9243 -53.3444
56770 1 18.1506 -46.4996 -51.8959
72845 1 22.4771 -47.9404 -53.325
72847 1 21.036 -46.5146 -51.8726
72849 1 23.9139 -46.5278 -51.856
72848 1 25.3545 -47.9598 -53.3078
72851 1 26.7869 -46.5479 -51.8399
72852 1 28.23 -47.9836 -53.2905
72854 1 29.6565 -46.5717 -51.8236
72855 1 31.1044 -48.0076 -53.2736
72857 1 32.5295 -46.5932 -51.8125
72858 1 33.9786 -48.0358 -53.2611
72860 1 35.3997 -46.6236 -51.8008
90335 1 36.851 -48.0683 -53.2512
89296 1 38.262 -46.6555 -51.7916
89282 1 39.7163 -48.1015 -53.2426
89285 1 42.5778 -48.1383 -53.2325
89299 1 41.1186 -46.6931 -51.7791
89298 1 42.5791 -45.268 -53.2161
89300 1 45.432 -48.1714 -53.2201
89302 1 43.9662 -46.7304 -51.7638
89301 1 45.4214 -45.3062 -53.2035
89303 1 48.2763 -48.2009 -53.2047
89304 1 46.8048 -46.7647 -51.7444
89306 1 49.632 -46.7936 -51.7206
89305 1 48.252 -45.3413 -53.1861
89308 1 51.1089 -48.2233 -53.1854
89310 1 52.4461 -46.8085 -51.6935
89309 1 51.0658 -45.3681 -53.1607
23 1 -50.8984 -43.9539 -51.6225
22 1 -52.2781 -42.5249 -53.088
24 1 -49.5097 -42.5223 -53.0376
25 1 -48.1254 -43.9379 -51.5909
104792 1 -46.771 -42.4825 -52.9538
27 1 -45.3249 -43.9173 -51.6372
8113 1 -44.0103 -42.5008 -53.1302
8102 1 -41.1122 -45.2463 -53.3146
8112 1 -42.5019 -43.8886 -51.7595
8115 1 -41.1808 -42.4687 -53.2603
8114 1 -39.6538 -43.8542 -51.8901
8105 1 -38.2562 -45.2139 -53.4317
8117 1 -38.3226 -42.4165 -53.3797
8116 1 -36.7814 -43.8003 -52.0021
8106 1 -35.3695 -45.1603 -53.5174
8119 1 -33.8839 -43.732 -52.0923
8118 1 -35.4223 -42.339 -53.4679
8108 1 -32.4634 -45.0986 -53.5873
8121 1 -30.9783 -43.6638 -52.1686
8120 1 -32.4969 -42.2477 -53.5443
8111 1 -29.5549 -45.043 -53.6469
24439 1 -28.0852 -43.6086 -52.2207
8122 1 -29.5722 -42.1591 -53.6149
24425 1 -26.6585 -44.9998 -53.6854
24441 1 -25.1973 -43.5773 -52.2458
24440 1 -26.6638 -42.1047 -53.6596
24428 1 -23.7657 -44.9765 -53.7022
24443 1 -22.306 -43.5679 -52.2465
24442 1 -23.7577 -42.0904 -53.6731
24432 1 -20.8672 -44.9684 -53.6967
24444 1 -19.4068 -43.5679 -52.2282
24435 1 -17.9673 -44.9697 -53.6786
24445 1 -20.8467 -42.0982 -53.6613
24447 1 -17.9328 -42.1098 -53.6361
24446 1 -16.5057 -43.5721 -52.2017
24438 1 -15.0674 -44.9737 -53.6544
24449 1 -15.0248 -42.1184 -53.6078
24448 1 -13.6059 -43.5762 -52.1735
40666 1 -12.1688 -44.979 -53.6287
56719 1 -12.1225 -42.1248 -53.58
40681 1 -10.7087 -43.5805 -52.1458
40665 1 -9.27172 -44.9852 -53.6012
40682 1 -9.2241 -42.1308 -53.552
40684 1 -7.81394 -43.5847 -52.1163
40669 1 -6.37666 -44.9909 -53.571
40686 1 -4.92039 -43.5878 -52.0862
40683 1 -6.32859 -42.1355 -53.5225
40672 1 -3.48159 -44.9942 -53.5407
40688 1 -2.02702 -43.5888 -52.0573
40685 1 -3.43503 -42.1379 -53.4936
40674 1 -0.586356 -44.9954 -53.5116
40687 1 -0.543705 -42.138 -53.4667
40689 1 0.864866 -43.5883 -52.0294
40679 1 2.30715 -44.9969 -53.4827
40690 1 3.75432 -43.589 -52.001
40691 1 2.34579 -42.138 -53.4402
56757 1 5.19697 -45.0012 -53.4529
56772 1 6.64181 -43.5926 -51.9721
56771 1 5.23317 -42.1407 -53.4129
56759 1 8.08376 -45.0093 -53.4228
56774 1 9.52719 -43.5997 -51.9433
56762 1 10.9688 -45.0199 -53.3929
56773 1 8.11957 -42.1466 -53.3847
56775 1 11.0039 -42.1547 -53.3567
56776 1 12.411 -43.6087 -51.9156
56763 1 13.8537 -45.0314 -53.3645
56777 1 13.8882 -42.1652 -53.3298
56779 1 15.2958 -43.6199 -51.8893
56766 1 16.7396 -45.0446 -53.3384
56778 1 16.7725 -42.1778 -53.3056
56781 1 18.1808 -43.633 -51.8654
56769 1 19.6252 -45.0597 -53.3155
56780 1 19.6542 -42.1906 -53.2855
72846 1 22.5055 -45.0732 -53.2981
72863 1 21.0616 -43.6449 -51.8462
72864 1 23.9391 -43.657 -51.831
72862 1 22.5332 -42.2032 -53.2694
72850 1 25.3847 -45.0887 -53.2824
72866 1 26.8161 -43.6732 -51.8173
72865 1 25.4124 -42.2182 -53.2549
72853 1 28.2588 -45.1127 -53.2676
72867 1 29.6855 -43.6945 -51.8044
105251 1 28.2898 -42.2378 -53.2419
72856 1 31.1283 -45.1365 -53.2531
72869 1 32.5557 -43.7216 -51.7921
72868 1 31.1642 -42.2605 -53.2307
72859 1 34.0031 -45.1647 -53.2428
72871 1 35.4188 -43.7498 -51.7795
72870 1 34.0326 -42.2877 -53.2208
102441 1 36.8671 -45.1949 -53.2349
89669 1 36.8869 -42.3145 -53.2144
89295 1 39.7273 -45.2288 -53.2265
89313 1 38.2734 -43.7792 -51.7744
89312 1 39.7449 -42.3485 -53.2045
89316 1 41.1244 -43.8173 -51.761
89315 1 42.5893 -42.3873 -53.1944
89318 1 43.9617 -43.8585 -51.7459
89317 1 45.4186 -42.4308 -53.184
89319 1 46.7861 -43.8992 -51.7257
89320 1 48.2306 -42.4735 -53.1674
89321 1 49.5955 -43.9336 -51.6973
89324 1 52.3867 -43.9539 -51.6599
89323 1 51.0212 -42.5063 -53.1367
29 1 -50.9671 -41.1057 -51.5795
28 1 -52.3398 -39.6725 -53.0582
30 1 -49.5904 -39.6744 -52.9908
31 1 -48.1912 -41.0819 -51.54
32 1 -46.8111 -39.6484 -52.9629
33 1 -45.3684 -41.0836 -51.5859
8124 1 -44.0376 -39.6927 -53.0765
8123 1 -42.5704 -41.1034 -51.7118
8126 1 -41.2532 -39.696 -53.2169
8125 1 -39.7322 -41.078 -51.8404
8128 1 -38.4133 -39.6551 -53.3403
8127 1 -36.8509 -41.0166 -51.953
8129 1 -35.5085 -39.566 -53.4291
8130 1 -33.9301 -40.918 -52.0432
8131 1 -32.5654 -39.4355 -53.4969
8132 1 -30.9981 -40.8021 -52.1315
8133 1 -29.6021 -39.2892 -53.5927
24450 1 -28.0907 -40.7223 -52.1937
24451 1 -26.6608 -39.222 -53.645
24452 1 -25.1873 -40.6923 -52.2192
24454 1 -23.7279 -39.222 -53.6476
24453 1 -22.2805 -40.6945 -52.2131
24456 1 -20.7962 -39.2453 -53.618
24455 1 -19.3692 -40.7065 -52.1877
24457 1 -17.8785 -39.259 -53.5895
24458 1 -16.4613 -40.7135 -52.1583
24459 1 -14.9699 -39.2654 -53.5601
24460 1 -13.5587 -40.7175 -52.1283
47653 1 -12.069 -39.2691 -53.5317
40693 1 -10.6614 -40.7209 -52.1
40692 1 -9.17299 -39.2724 -53.5042
40696 1 -7.76793 -40.7243 -52.0714
40695 1 -6.28047 -39.275 -53.4761
40698 1 -4.87565 -40.7258 -52.0427
40697 1 -3.38923 -39.2751 -53.449
40700 1 -1.98469 -40.7253 -52.0152
40699 1 -0.499984 -39.2737 -53.4237
40701 1 0.90389 -40.7245 -51.9886
40703 1 2.3867 -39.2734 -53.3987
40702 1 3.79051 -40.7249 -51.9616
56783 1 5.2717 -39.2759 -53.3729
56782 1 6.67621 -40.7278 -51.9344
56784 1 9.56053 -40.7324 -51.9073
56785 1 8.1554 -39.2807 -53.3467
56786 1 11.0387 -39.2876 -53.3208
56788 1 12.4438 -40.74 -51.8811
56787 1 13.9219 -39.2972 -53.2958
56790 1 15.3276 -40.7504 -51.8566
56789 1 16.8046 -39.3081 -53.2734
56792 1 18.2102 -40.7616 -51.8347
56791 1 19.6855 -39.3197 -53.2546
72872 1 22.5646 -39.3328 -53.239
72873 1 21.089 -40.7729 -51.8168
72874 1 23.9664 -40.7859 -51.8026
72875 1 25.4451 -39.3486 -53.2254
72876 1 26.8445 -40.8028 -51.7897
72877 1 28.3208 -39.3636 -53.2128
72878 1 29.7141 -40.823 -51.7771
72879 1 31.1938 -39.3873 -53.2014
72880 1 32.584 -40.8466 -51.7648
72881 1 34.0605 -39.4039 -53.1882
72882 1 35.4433 -40.869 -51.7551
89326 1 36.9205 -39.4277 -53.1836
89327 1 38.2943 -40.8991 -51.7496
104863 1 39.7721 -39.46 -53.1743
89329 1 42.6126 -39.4942 -53.1647
89330 1 41.1413 -40.932 -51.7365
89331 1 45.4323 -39.5371 -53.1577
89332 1 43.9702 -40.9729 -51.7232
89334 1 48.221 -39.5881 -53.1482
89333 1 46.7769 -41.02 -51.7052
89335 1 49.5607 -41.0634 -51.6752
89336 1 50.9835 -39.6365 -53.1178
89337 1 52.3301 -41.0942 -51.6292
35 1 -51.037 -38.2604 -51.5432
34 1 -52.4064 -36.817 -53.0365
37 1 -48.2432 -38.2526 -51.5105
36 1 -49.6743 -36.8237 -52.954
40 1 -46.8625 -36.8208 -52.9332
41 1 -45.4089 -38.2587 -51.5421
8135 1 -44.042 -36.8412 -52.9906
8134 1 -42.6148 -38.3008 -51.6501
8138 1 -41.2878 -36.8921 -53.1361
8137 1 -39.8119 -38.3209 -51.7807
8140 1 -39.8693 -35.5701 -51.6542
8139 1 -38.4931 -36.9042 -53.2671
8143 1 -37.0691 -35.6246 -51.7428
8141 1 -36.9576 -38.3015 -51.8979
8144 1 -34.022 -38.1701 -51.9823
8142 1 -35.6491 -36.8604 -53.3722
8146 1 -34.2951 -35.6317 -51.7864
8145 1 -32.6833 -36.6791 -53.4138
8147 1 -31.0359 -37.9553 -52.0987
8148 1 -29.6285 -36.4451 -53.6345
24462 1 -28.0985 -37.861 -52.1752
24461 1 -26.578 -36.4042 -53.6282
24463 1 -25.1418 -37.834 -52.1914
24465 1 -23.6375 -36.3764 -53.5983
24464 1 -22.222 -37.836 -52.1725
24467 1 -20.7139 -36.3884 -53.5696
24468 1 -17.8063 -36.3993 -53.5409
24466 1 -19.31 -37.8471 -52.1444
24470 1 -14.9069 -36.4037 -53.5127
24469 1 -16.4052 -37.8536 -52.1143
24471 1 -13.5058 -37.8551 -52.0845
40593 1 -12.0121 -36.4047 -53.4862
40704 1 -10.6115 -37.8555 -52.0568
40705 1 -9.12096 -36.405 -53.4603
40708 1 -7.72136 -37.8567 -52.0296
40707 1 -6.23272 -36.4056 -53.4338
40709 1 -4.83266 -37.8573 -52.0026
40710 1 -3.34505 -36.4054 -53.4079
40711 1 -1.94356 -37.856 -51.976
40712 1 -0.457293 -36.4041 -53.3831
40713 1 0.94381 -37.8548 -51.9498
40715 1 2.42862 -36.4038 -53.3588
40714 1 3.82857 -37.8559 -51.9233
56794 1 5.31134 -36.4062 -53.3344
56793 1 6.71158 -37.8587 -51.8974
56796 1 8.19241 -36.4109 -53.3103
56795 1 9.59367 -37.8631 -51.8722
56797 1 11.0733 -36.4175 -53.2866
56798 1 12.4756 -37.8698 -51.848
56799 1 13.9546 -36.4259 -53.2631
56800 1 15.3577 -37.8788 -51.8253
56801 1 16.8362 -36.4358 -53.2416
56803 1 19.7175 -36.4472 -53.2229
56802 1 18.2395 -37.8888 -51.8046
72883 1 22.5972 -36.4613 -53.2072
72884 1 21.1187 -37.9001 -51.7867
72885 1 23.9969 -37.9146 -51.7722
72886 1 25.474 -36.4751 -53.194
72887 1 26.8714 -37.9281 -51.7591
72888 1 28.3502 -36.49 -53.1821
72889 1 29.7429 -37.9463 -51.7469
72890 1 31.2239 -36.5086 -53.1711
72891 1 32.6077 -37.9653 -51.7337
72892 1 34.092 -36.5242 -53.1598
72893 1 35.4728 -37.9831 -51.7247
103373 1 36.9573 -36.5407 -53.1514
89340 1 38.3269 -38.0069 -51.7172
89339 1 39.8128 -36.5614 -53.1394
89343 1 41.1695 -38.0364 -51.7044
89342 1 42.6503 -36.5892 -53.125
89345 1 43.9965 -38.0693 -51.6916
89344 1 45.4731 -36.6206 -53.1165
89348 1 49.5374 -38.1768 -51.6555
89346 1 46.7916 -38.1144 -51.6807
89347 1 48.2511 -36.6604 -53.1262
89350 1 52.2757 -38.2352 -51.6014
89349 1 50.9656 -36.7488 -53.1103
38 1 -51.1066 -35.4409 -51.5057
43 1 -51.2081 -32.7034 -51.4356
104794 1 -52.4907 -34.0136 -53.0123
44 1 -49.7474 -34.0466 -52.9339
39 1 -48.3128 -35.4593 -51.4728
47 1 -46.9372 -34.0785 -52.8994
45 1 -48.386 -32.7056 -51.4318
46 1 -45.4681 -35.4712 -51.4792
8149 1 -44.1105 -34.1028 -52.9195
48 1 -45.5616 -32.7273 -51.4438
8136 1 -42.6255 -35.4802 -51.5283
8151 1 -41.3189 -34.1506 -53.0012
8150 1 -42.707 -32.7482 -51.4696
8153 1 -38.5383 -34.2153 -53.0796
8152 1 -39.8828 -32.7894 -51.556
8155 1 -37.2147 -32.8224 -51.4808
8154 1 -35.7765 -34.2051 -53.0874
8156 1 -34.3758 -32.8626 -51.5395
8157 1 -32.98 -34.2452 -53.0128
8158 1 -30.8659 -35.0713 -52.1616
8159 1 -31.5073 -32.8563 -51.4907
10000 1 -31.5754 -32.8399 -54.091
24472 1 -28.0608 -35.1799 -52.1513
8160 1 -29.2821 -33.528 -53.8655
24474 1 -28.7435 -33.0521 -51.5308
24477 1 -25.0608 -34.957 -52.171
24473 1 -26.523 -33.5435 -53.5572
24476 1 -22.1359 -34.9595 -52.136
24478 1 -23.5152 -33.4808 -53.5497
24480 1 -19.2336 -34.9734 -52.1017
24481 1 -20.608 -33.5027 -53.5224
24484 1 -17.7234 -33.5172 -53.4947
24483 1 -16.3405 -34.98 -52.0717
24487 1 -14.8394 -33.524 -53.4687
24486 1 -13.45 -34.9817 -52.0439
40590 1 -11.9543 -33.5264 -53.4447
40716 1 -10.5617 -34.9813 -52.0178
40717 1 -9.06934 -33.5269 -53.4204
40720 1 -7.6752 -34.9811 -51.9918
40721 1 -6.18534 -33.5273 -53.3951
40723 1 -4.78971 -34.9816 -51.9656
40726 1 -1.90338 -34.9817 -51.9392
40725 1 -3.30076 -33.5285 -53.3696
40728 1 -0.415254 -33.5298 -53.3451
40729 1 0.983126 -34.9814 -51.9129
40731 1 3.86697 -34.9823 -51.8872
40732 1 2.46919 -33.5305 -53.3217
56804 1 6.74809 -34.9852 -51.8627
56805 1 5.35066 -33.5322 -53.2987
56807 1 9.62775 -34.99 -51.8395
56808 1 8.22977 -33.5363 -53.2762
56811 1 11.108 -33.5426 -53.2539
56810 1 12.5071 -34.9965 -51.8167
56812 1 13.9869 -33.5507 -53.2311
56814 1 15.3873 -35.0047 -51.7948
56815 1 16.8677 -33.5608 -53.2096
56817 1 18.2683 -35.0146 -51.7743
56818 1 19.749 -33.5731 -53.1908
72894 1 21.148 -35.0267 -51.7557
72898 1 24.024 -35.0397 -51.7402
72895 1 22.6273 -33.5867 -53.1751
72899 1 26.8972 -35.0537 -51.7275
72900 1 25.5027 -33.6008 -53.1621
72902 1 29.7687 -35.0699 -51.7161
72903 1 28.3776 -33.6154 -53.1498
72905 1 32.6363 -35.0852 -51.7043
72906 1 31.2508 -33.6291 -53.1369
72908 1 35.5028 -35.0997 -51.6941
72909 1 34.1236 -33.6417 -53.1248
89352 1 38.362 -35.115 -51.6821
103212 1 36.9946 -33.6522 -53.1128
89353 1 39.8574 -33.6623 -53.0988
89356 1 41.2102 -35.1315 -51.6658
89357 1 42.7103 -33.6741 -53.0799
89359 1 44.0427 -35.1527 -51.6478
89360 1 45.5591 -33.6899 -53.0578
89362 1 46.853 -35.1751 -51.6341
89363 1 49.5437 -35.2526 -51.6308
89364 1 48.4735 -33.5996 -53.063
89368 1 52.22 -35.394 -51.5619
89367 1 51.0685 -33.8188 -53.1331
89369 1 52.0602 -32.6086 -51.265
49 1 -52.7672 -31.5283 -52.8907
50 1 -51.3759 -30.0508 -51.5539
51 1 -49.8486 -31.3846 -52.898
53 1 -47.0184 -31.3497 -52.8623
52 1 -48.5263 -29.9695 -51.4869
8161 1 -44.1897 -31.3722 -52.8629
54 1 -45.6739 -29.9495 -51.4701
8162 1 -42.8253 -30.0012 -51.4774
8163 1 -41.3619 -31.4129 -52.8972
8164 1 -39.9608 -30.1253 -51.4292
8165 1 -38.5618 -31.4576 -52.9457
8644 1 -37.5091 -30.2373 -51.0835
8167 1 -35.8271 -31.4151 -52.7923
8168 1 -34.4832 -30.0256 -51.2269
8169 1 -33.0007 -31.3909 -52.7083
8170 1 -31.6316 -30.0942 -51.0856
24060 1 -31.5601 -30.0099 -53.9389
8171 1 -30.1333 -31.4044 -52.6097
40287 1 -28.705 -29.9729 -53.7597
24489 1 -27.4176 -31.5697 -52.4248
24503 1 -25.9305 -30.2133 -53.6246
24475 1 -24.857 -31.9694 -52.1656
24492 1 -23.2917 -30.499 -53.5159
24479 1 -22.0136 -32.0484 -52.0973
24493 1 -21.8858 -29.1031 -52.0436
24494 1 -20.486 -30.5774 -53.4811
24482 1 -19.1463 -32.0749 -52.0605
24495 1 -19.0581 -29.1546 -52.0207
24496 1 -17.6375 -30.6097 -53.4544
24485 1 -16.2718 -32.0874 -52.0327
24498 1 -14.7712 -30.6254 -53.4303
24497 1 -16.2034 -29.1794 -51.9979
24488 1 -13.3923 -32.0932 -52.0076
48633 1 -11.8962 -30.6332 -53.4075
24499 1 -13.3353 -29.1927 -51.9748
40718 1 -10.5112 -32.0961 -51.9827
40734 1 -9.01803 -30.6374 -53.3834
40735 1 -10.4616 -29.2005 -51.95
40722 1 -7.62956 -32.0978 -51.9567
40737 1 -6.13883 -30.641 -53.3581
40738 1 -7.58534 -29.2062 -51.9233
40724 1 -4.74731 -32.0998 -51.9305
40740 1 -3.2573 -30.6456 -53.3331
40727 1 -1.86327 -32.1025 -51.9044
40739 1 -4.70644 -29.2119 -51.897
40741 1 -1.82539 -29.2173 -51.8714
40742 1 -0.374735 -30.6498 -53.3089
40730 1 1.02085 -32.1043 -51.8785
40743 1 1.05598 -29.2212 -51.8458
40744 1 2.50691 -30.6523 -53.2858
40733 1 3.9034 -32.1054 -51.8536
40745 1 3.93696 -29.2236 -51.821
56820 1 5.38713 -30.654 -53.2633
56806 1 6.78385 -32.1078 -51.8302
56821 1 6.81705 -29.2261 -51.7977
56822 1 8.26555 -30.6573 -53.2418
56809 1 9.66191 -32.1122 -51.8079
56824 1 11.1425 -30.6635 -53.2204
56823 1 9.69492 -29.2305 -51.7752
56813 1 12.539 -32.1187 -51.7857
56826 1 14.0203 -30.6723 -53.1983
56825 1 12.5714 -29.2373 -51.7535
56816 1 15.4174 -32.1273 -51.7639
56827 1 16.9001 -30.6836 -53.1769
56828 1 15.4488 -29.2466 -51.7322
56819 1 18.2976 -32.1383 -51.7432
56829 1 19.7796 -30.6963 -53.1584
56830 1 18.3267 -29.2582 -51.7116
72896 1 21.1753 -32.1504 -51.7247
72911 1 22.6555 -30.7092 -53.1428
72897 1 24.0496 -32.1627 -51.7092
72912 1 21.2015 -29.2703 -51.6929
72913 1 24.0727 -29.2823 -51.6769
72914 1 25.5286 -30.7225 -53.1289
72901 1 26.9211 -32.1761 -51.696
72915 1 26.9434 -29.2963 -51.6619
72916 1 28.4024 -30.7369 -53.1148
72904 1 29.7918 -32.1906 -51.6824
72917 1 29.8143 -29.3117 -51.6462
72907 1 32.6617 -32.2051 -51.6687
72918 1 31.2772 -30.7502 -53.0999
72919 1 32.6853 -29.3254 -51.6295
72910 1 35.531 -32.2165 -51.6548
72920 1 34.1523 -30.7617 -53.0845
72921 1 35.5547 -29.3352 -51.6097
89354 1 38.3954 -32.2245 -51.6378
89374 1 37.0266 -30.7685 -53.0673
89372 1 39.8996 -30.7724 -53.0468
89373 1 38.4221 -29.3409 -51.5842
89375 1 42.7714 -30.7746 -53.0191
89358 1 41.2527 -32.2321 -51.6155
89376 1 41.2852 -29.346 -51.5474
89361 1 44.0977 -32.2426 -51.5814
89377 1 45.627 -30.7775 -52.9751
89378 1 44.1296 -29.348 -51.4824
89380 1 48.3753 -30.7565 -52.8548
89366 1 46.911 -32.2589 -51.5121
89365 1 49.6422 -32.2105 -51.1672
89379 1 46.9249 -29.3334 -51.3605
89381 1 49.6478 -29.3013 -51.0066
89382 1 50.6216 -31.419 -53.0929
89383 1 51.8061 -30.1107 -51.6401
56 1 -51.6246 -27.3188 -51.6581
63 1 -50.2041 -25.8928 -53.0113
57 1 -50.0521 -28.6546 -52.962
55 1 -52.9073 -28.7478 -53.0773
58 1 -48.7141 -27.2069 -51.543
59 1 -47.1528 -28.5628 -52.8609
60 1 -45.8042 -27.1682 -51.4608
8172 1 -44.2631 -28.5543 -52.8177
8173 1 -42.8845 -27.2188 -51.3739
8174 1 -41.3882 -28.6123 -52.7538
8175 1 -40.0965 -27.3337 -51.1602
8176 1 -38.6129 -28.6635 -52.651
8187 1 -38.6921 -25.8984 -52.4785
8660 1 -37.4411 -27.4499 -50.9507
104796 1 -37.2165 -27.2511 -53.972
104797 1 -39.9724 -27.2107 -54.0638
8166 1 -35.9526 -28.7118 -52.5041
8177 1 -35.9454 -25.9674 -52.3565
104798 1 -34.4476 -27.2926 -53.862
8179 1 -33.1212 -25.9767 -52.2818
8180 1 -33.0474 -28.6589 -52.4587
8192 1 -31.5895 -27.2766 -53.7716
8181 1 -30.2696 -25.9829 -52.1966
8182 1 -30.2136 -28.6901 -52.3219
24501 1 -27.4252 -26.0206 -52.1128
24500 1 -27.3725 -28.7873 -52.1747
11894 1 -28.7424 -27.3144 -53.6571
40634 1 -25.9219 -27.4085 -53.5551
24502 1 -24.6092 -26.0891 -52.0443
24491 1 -24.6491 -28.9808 -52.0618
40637 1 -23.1702 -27.5453 -53.4781
24504 1 -21.8051 -26.17 -52.0124
24505 1 -20.3854 -27.6385 -53.4457
24506 1 -18.9852 -26.2293 -51.9903
24507 1 -17.5584 -27.6879 -53.4213
24508 1 -16.1425 -26.2643 -51.9688
24509 1 -14.7069 -27.7149 -53.3983
24510 1 -13.2843 -26.2854 -51.946
40507 1 -11.8418 -27.7305 -53.3753
40747 1 -10.4179 -26.2991 -51.9208
40746 1 -8.97031 -27.7402 -53.3503
40749 1 -7.546 -26.3092 -51.8934
40748 1 -6.09534 -27.7484 -53.3241
40750 1 -4.67031 -26.318 -51.8666
40751 1 -3.2174 -27.7561 -53.2989
40752 1 -1.7917 -26.3256 -51.8413
40753 1 -0.337858 -27.7629 -53.2749
40754 1 1.08815 -26.3318 -51.816
40755 1 2.54159 -27.768 -53.2512
40756 1 3.96848 -26.3363 -51.7912
56831 1 5.42111 -27.7713 -53.2285
56832 1 6.84855 -26.34 -51.7674
56833 1 8.29987 -27.7756 -53.207
56834 1 9.72639 -26.3454 -51.744
56835 1 11.1767 -27.7824 -53.1863
56836 1 12.603 -26.3536 -51.7219
56837 1 14.054 -27.7918 -53.1651
56839 1 15.4796 -26.3639 -51.7001
56838 1 16.9325 -27.8034 -53.144
56841 1 18.3554 -26.3756 -51.6788
56840 1 19.8094 -27.8162 -53.1254
72922 1 22.6819 -27.8288 -53.1092
72923 1 21.2267 -26.3878 -51.6593
72924 1 24.0957 -26.4012 -51.6424
72925 1 25.5538 -27.8429 -53.0937
72926 1 26.9656 -26.4166 -51.6261
72927 1 28.4273 -27.8584 -53.0777
72928 1 29.8358 -26.4327 -51.6082
72929 1 31.3018 -27.8728 -53.0603
72930 1 32.7057 -26.4465 -51.5878
72931 1 34.1776 -27.8835 -53.0404
72932 1 35.5749 -26.4556 -51.5612
89387 1 37.0533 -27.8903 -53.0156
89386 1 38.4437 -26.4619 -51.5247
89385 1 39.9305 -27.8955 -52.983
89389 1 41.3046 -26.4646 -51.4696
89388 1 42.8035 -27.8976 -52.9324
89390 1 45.6502 -27.8832 -52.8299
89391 1 44.1388 -26.4544 -51.3724
89395 1 48.4092 -27.7415 -52.5134
89394 1 46.9175 -26.3847 -51.1647
89411 1 49.9841 -26.2216 -53.6615
89397 1 50.1944 -28.9709 -53.3053
89398 1 51.4547 -27.5277 -51.9032
61 1 52.9254 -26.0544 -53.2146
62 1 -51.8084 -24.6182 -51.7082
70 1 -50.3056 -23.1988 -53.0344
65 1 -47.2825 -25.8158 -52.8829
64 1 -48.851 -24.5026 -51.5216
73 1 -47.368 -23.1225 -52.8593
8183 1 -44.3492 -25.7966 -52.7594
66 1 -45.9053 -24.4648 -51.3763
8194 1 -44.4469 -23.1019 -52.7048
8185 1 -41.4689 -25.8426 -52.62
8184 1 -43.0062 -24.5063 -51.1958
8197 1 -41.5857 -23.1164 -52.5542
8671 1 -40.2434 -24.5986 -50.9987
14485 1 -40.0613 -24.4676 -53.9815
8186 1 -38.7867 -23.1468 -52.414
24390 1 -37.2641 -24.499 -53.8684
8188 1 -35.9776 -23.1664 -52.3157
8189 1 -34.475 -24.5346 -53.7647
8191 1 -33.1509 -23.1776 -52.2409
8190 1 -31.6444 -24.5451 -53.6822
8193 1 -30.307 -23.1834 -52.1706
24512 1 -27.4578 -23.1979 -52.1024
24393 1 -28.7985 -24.5599 -53.6011
24513 1 -25.9601 -24.595 -53.5256
24514 1 -24.6139 -23.2266 -52.0447
24515 1 -23.1414 -24.653 -53.4652
24516 1 -21.7762 -23.2694 -52.0043
24517 1 -20.3268 -24.7178 -53.4266
24518 1 -18.9419 -23.3143 -51.9741
24519 1 -17.4992 -24.7675 -53.3979
24520 1 -16.0987 -23.3502 -51.9486
24521 1 -14.6539 -24.801 -53.3731
24522 1 -13.2445 -23.376 -51.9238
38942 1 -11.7962 -24.8239 -53.3493
40758 1 -10.3827 -23.3955 -51.8978
40757 1 -8.93043 -24.84 -53.3234
40761 1 -7.51466 -23.4102 -51.8702
40760 1 -6.05902 -24.852 -53.2962
40762 1 -4.6404 -23.4217 -51.8429
40763 1 -3.18312 -24.8624 -53.2703
40764 1 -1.76228 -23.4318 -51.8168
40765 1 -0.304415 -24.8716 -53.2458
40766 1 1.11766 -23.4405 -51.7909
40767 1 2.57454 -24.8791 -53.2219
40768 1 3.99788 -23.4466 -51.766
56842 1 5.45379 -24.8849 -53.1988
56843 1 6.87756 -23.4511 -51.7415
56844 1 8.33253 -24.8906 -53.1767
56845 1 9.75572 -23.4579 -51.7169
56846 1 11.2092 -24.8992 -53.1551
56847 1 12.6325 -23.4678 -51.6934
56848 1 14.0859 -24.9099 -53.1335
56849 1 15.5086 -23.4793 -51.6701
56850 1 16.9632 -24.9221 -53.1118
56852 1 18.3824 -23.4912 -51.6472
56851 1 19.8378 -24.9344 -53.0923
72933 1 22.708 -24.9481 -53.0747
72934 1 21.2514 -23.5038 -51.6259
72935 1 24.1179 -23.519 -51.6075
72936 1 25.5784 -24.9634 -53.0576
72937 1 26.9865 -23.5362 -51.5898
72938 1 28.4512 -24.9798 -53.0395
72939 1 29.8559 -23.553 -51.5691
72940 1 31.3249 -24.9948 -53.0185
72941 1 32.7248 -23.5661 -51.5439
72942 1 34.1997 -25.0061 -52.9928
72943 1 35.5942 -23.5762 -51.5101
89593 1 37.0762 -25.0146 -52.959
89401 1 38.4623 -23.5821 -51.4624
89400 1 39.9506 -25.0201 -52.9123
89404 1 41.3175 -23.5794 -51.3905
89403 1 42.81 -25.016 -52.838
89406 1 45.6318 -24.982 -52.6951
89407 1 44.1405 -23.5593 -51.2699
89410 1 48.4321 -24.8871 -52.4031
89408 1 46.9327 -23.5052 -51.0573
104804 1 47.1386 -23.5181 -53.9978
89429 1 49.9526 -23.4204 -53.6431
89412 1 51.3206 -24.768 -52.0076
104802 1 52.8387 -23.302 -53.2778
69 1 -51.8581 -21.8791 -51.7132
72 1 -50.3489 -20.4651 -53.0253
71 1 -48.9295 -21.8095 -51.4934
75 1 -47.4438 -20.3991 -52.8349
74 1 -46.0101 -21.7702 -51.3148
8196 1 -44.549 -20.3596 -52.673
8195 1 -43.1273 -21.7642 -51.1501
8687 1 -40.3142 -21.7888 -50.9943
11360 1 -43.0056 -21.7223 -54.0697
8199 1 -41.6856 -20.3448 -52.5325
8201 1 -40.1604 -21.7181 -53.946
24391 1 -37.3402 -21.7254 -53.8308
8198 1 -38.8562 -20.3465 -52.409
8203 1 -34.5191 -21.7339 -53.7374
8202 1 -36.0234 -20.3462 -52.3136
8205 1 -31.685 -21.7402 -53.6592
8206 1 -33.1849 -20.347 -52.237
8208 1 -28.8389 -21.7467 -53.5875
8209 1 -30.337 -20.3485 -52.1688
24525 1 -27.4826 -20.3536 -52.1069
24523 1 -25.9908 -21.7602 -53.5214
24526 1 -24.6278 -20.3662 -52.0517
24527 1 -23.1461 -21.785 -53.4651
24528 1 -21.7747 -20.3865 -52.0061
24530 1 -20.3067 -21.8209 -53.4212
24531 1 -18.9256 -20.4149 -51.9685
24533 1 -17.4671 -21.8591 -53.3865
24536 1 -14.6189 -21.8916 -53.3574
24534 1 -16.0748 -20.445 -51.9375
38116 1 -11.7624 -21.9175 -53.3307
24537 1 -13.2184 -20.4711 -51.9091
40769 1 -8.89946 -21.9384 -53.3038
40770 1 -10.3567 -20.4931 -51.8814
40772 1 -6.0299 -21.9549 -53.2759
40773 1 -7.48961 -20.5118 -51.8536
40775 1 -3.15382 -21.9681 -53.2488
40776 1 -4.61563 -20.5269 -51.8259
40778 1 -1.73691 -20.5386 -51.7983
40779 1 -0.274792 -21.9794 -53.2226
40780 1 1.14299 -20.5483 -51.7709
40782 1 2.60409 -21.9882 -53.1977
40783 1 4.02256 -20.5556 -51.7449