ITEM: TIMESTEP
0
ITEM: NUMBER OF ATOMS
         825
ITEM: BOX BOUNDS pp pp pp
  -178.88222628310001        178.88222628310001     
  -180.48189673990001        180.48189673990001     
  -189.59196348419999        189.59196348419999     
ITEM: ATOMS id type x y z occ
  131818   1        -138.02800000        -58.38260000       -142.50200000    2
  133601   1         -59.34520000        -22.24420000       -142.42500000    0
  134553   1         -79.67140000         -3.77242000       -142.39600000    0
  142525   1        -101.37300000        -23.98430000       -140.21200000    0
  161444   1         -95.07100000         -5.14783000       -132.22900000    0
  170597   1         -95.93130000         -3.05095000       -131.13100000    0
  212036   1         -79.59190000        -71.24790000       -112.52700000    0
  212177   1         -81.17350000        -69.21500000       -113.77500000    0
  229672   1         -84.92710000        -79.08870000       -105.56300000    0
  238598   1        -104.02700000        -78.70650000       -103.88200000    0
  247738   1         -91.65820000        -72.83580000       -100.04000000    0
  256251   1         -81.18980000        -85.07780000        -97.15940000    0
  256565   1         -89.40300000        -78.86190000        -96.36060000    0
  256708   1         -90.07940000        -74.86090000        -98.78580000    0
  256716   1         -85.95840000        -72.91050000        -97.51280000    0
  256889   1         -87.53700000        -70.88450000        -98.76810000    0
  257035   1         -85.89590000        -68.88580000        -97.58210000    0
  265535   1         -79.58460000        -76.98940000        -92.55410000    0
  274493   1         -81.32700000        -76.90970000        -90.26950000    0
  274495   1         -78.84750000        -76.96350000        -90.18820000    0
  283108   1         -96.44110000        -82.60420000        -87.19600000    0
  283438   1         -83.07060000        -76.82950000        -87.98620000    0
 4206428   1         -80.59110000        -76.88130000        -87.90280000    0
  283580   1         -96.30690000        -74.55370000        -87.31980000    0
  283587   1         -83.91090000        -74.77760000        -86.88060000    0
 4206430   1         -81.43160000        -74.82870000        -86.79700000    0
  283591   1         -77.20840000        -74.96750000        -89.00260000    0
  283593   1         -78.04920000        -72.91430000        -87.89790000    0
  283594   1         -79.68770000        -74.91160000        -89.08190000    0
  283595   1         -78.95240000        -74.88260000        -86.71550000    0
  283598   1         -75.57020000        -72.97270000        -87.82110000    0
  283771   1         -76.41170000        -70.91820000        -86.71810000    0
  292419   1         -84.08300000        -76.71520000        -83.33660000    0
  292579   1         -85.65650000        -74.69620000        -84.59940000    0
 4206429   1         -83.17720000        -74.74520000        -84.51370000    0
  292582   1         -80.69780000        -74.79690000        -84.42980000    0
 4206431   1         -79.79350000        -72.82870000        -85.61120000    0
 4206432   1         -77.31450000        -72.88500000        -85.53200000    0
  292724   1         -99.73050000        -70.38330000        -82.84090000    0
  292740   1         -84.01850000        -72.69120000        -83.40990000    0
 4206434   1         -81.53940000        -72.74220000        -83.32600000    0
  292744   1         -79.06030000        -72.79610000        -83.24430000    0
 4206433   1         -78.15640000        -70.82960000        -84.42930000    0
  292745   1         -75.67770000        -70.88870000        -84.35320000    0
  292889   1         -78.99870000        -68.77330000        -83.32770000    0
  292892   1         -74.77520000        -68.92360000        -85.54340000    0
  292893   1         -76.52040000        -68.83180000        -83.25220000    0
  301123   1         -22.12100000        -82.41560000        -81.39790000    0
  301715   1         -83.28730000        -72.65500000        -81.04270000    0
  301716   1         -81.65090000        -70.64910000        -79.85640000    0
  301718   1         -79.90270000        -70.73980000        -82.14190000    0
 4206435   1         -82.38140000        -70.68660000        -82.22340000    0
  301862   1         -80.74540000        -68.68260000        -81.04040000    0
  301866   1         -78.26700000        -68.73840000        -80.96200000    0
  309901   1         -73.74240000        -86.86200000        -76.93350000    0
  311140   1         -84.84380000        -60.49030000        -79.00470000    0
  318868   1         -49.77180000        -85.70420000        -75.16720000    0
  319162   1         -73.78930000        -80.74320000        -73.51920000    0
  319927   1         -97.47800000        -66.23460000        -75.81890000    0
  325866   1        -157.31700000       -123.82000000        -71.37590000    2
  327843   1         -78.18330000        -88.62510000        -71.18510000    0
  328010   1         -42.42440000        -83.91580000        -71.51130000    0
  328298   1         -72.15060000        -78.74330000        -72.33020000    0
  337155   1         -62.39480000        -80.97450000        -68.45180000    0
  337176   1         -42.52660000        -81.88170000        -68.04320000    0
  337187   1         -34.16690000        -80.05860000        -68.97540000    0
  345161   1         -34.48780000        -98.29770000        -65.36230000    0
  354468   1         -32.08050000        -92.27180000        -61.82470000    0
  354942   1         -32.01070000        -84.14330000        -61.86260000    0
  355120   1         -33.59410000        -82.07860000        -63.09550000    0
  363783   1         -41.23440000        -88.03100000        -59.80180000    0
  372116   1         -57.01540000       -100.30900000        -55.85020000    0
  381290   1         -48.10890000        -96.29730000        -50.77570000    0
  408083   1         -34.48280000        -98.59990000        -42.06310000    0
  408263   1         -36.06700000        -96.55760000        -43.29490000    0
 4206529   1        -109.78500000       -154.05000000        -31.04540000    0
 4207469   1        -112.86300000       -149.96100000        -33.20920000    0
 4207472   1        -111.26200000       -151.98400000        -31.99090000    0
  435702   1         -88.22610000        -87.48400000        -31.86290000    0
  444659   1         -89.94150000        -87.39120000        -29.63390000    0
  445023   1          -0.29470100        -81.01280000        -30.41040000    0
  446704   1        -103.01200000        -44.73510000        -29.74850000    2
  451686   1          -0.60880400       -127.28100000        -26.66430000    2
  451807   1          -1.46488000       -125.25500000        -25.54120000    2
  463202   1          -4.87292000        -76.99860000        -21.16050000    0
  463365   1          -3.99506000        -75.00090000        -22.30460000    0
  472348   1          -3.27616000        -75.00470000        -19.94300000    0
  480304   1         -77.99780000        -94.72540000        -15.23710000    0
  480308   1         -75.51100000        -94.71160000        -15.21420000    0
  489251   1         -77.25680000        -94.72960000        -12.90730000    0
  525405   1          -9.16098000        -91.03540000          0.96151400    2
  525406   1          -8.28795000        -89.02890000         -0.18614800    2
  536298   1         -11.09360000        -50.76170000          3.12469000    2
  536301   1          -7.73771000        -52.80310000          2.07350000    2
  545289   1          -5.42616000        -50.77330000          5.62998000    2
  545471   1          -8.77802000        -48.73110000          6.68054000    2
  587773   1         -83.83800000        -99.57030000         22.00890000    2
  605603   1         -72.47340000       -101.46400000         30.53820000    2
  605606   1         -69.99500000       -101.43700000         30.61640000    2
  605607   1         -67.51720000       -101.40500000         30.69770000    2
  614550   1         -71.70630000       -101.43700000         32.89890000    2
  614552   1         -69.22900000       -101.41100000         32.97610000    2
  616286   1         -65.87700000        -66.87130000         31.72730000    0
  624268   1         -84.17210000        -87.30230000         35.98010000    0
  624715   1         -71.79110000        -79.05800000         36.28530000    0
  633626   1         -73.50360000        -79.06100000         38.56580000    0
  641977   1         -76.06200000        -89.19590000         42.05340000    0
  650994   1         -77.76830000        -89.18590000         44.34470000    0
  651000   1         -76.14460000        -91.18650000         45.57280000    0
  651164   1         -76.15040000        -87.13450000         45.54430000    0
  651802   1         -81.10410000        -75.02580000         45.33530000    0
  659239   1         -61.34990000       -105.22400000         49.61450000    0
  659569   1         -50.61200000        -99.09460000         48.71460000    0
  660013   1         -80.32220000        -91.18930000         47.80510000    0
  660824   1         -78.72110000        -72.94560000         48.89260000    0
  664283   1         -42.47660000         -3.86048000         47.40500000    2
  672214   1          -2.17181000        -28.11110000         51.03060000    0
  672989   1         -30.24490000         -9.89369000         51.29540000    2
  672990   1         -31.10180000        -11.91770000         52.43630000    2
  673469   1         -42.60030000         -1.79754000         50.90890000    2
  678656   1         -50.86070000        -78.79960000         55.56500000    0
  690247   1          -3.25839000        -26.02350000         59.13760000    0
  690416   1          -4.87267000        -24.00960000         57.92450000    0
  690541   1          -9.82224000        -19.96960000         57.76720000    0
  690548   1          -3.26704000        -21.97070000         59.14430000    0
  690746   1          -8.21710000        -17.93070000         58.98790000    0
  699257   1          -4.97773000        -26.01410000         61.40690000    0
  699419   1          -4.12250000        -23.99200000         60.27560000    0
  699420   1          -3.37219000        -23.97470000         62.62690000    0
  699422   1          -1.65271000        -23.98450000         60.35710000    0
  699766   1          -1.67228000        -15.87870000         60.37430000    0
  705155   1         -87.32790000        -86.97740000         63.96830000    0
  705463   1         -73.38200000        -80.83690000         65.45280000    0
  705679   1         -25.57330000        -78.64330000         65.59070000    2
  705930   1         -75.01450000        -70.74320000         64.17340000    0
  706932   1         -41.34310000        -52.40150000         66.19970000    2
  708540   1         -13.36100000        -21.98240000         65.79170000    0
  709050   1         -10.06440000        -11.82640000         64.76290000    0
  714479   1         -82.50150000        -80.84900000         67.54120000    0
  715794   1         -42.19880000        -54.41920000         67.34980000    2
  715917   1         -38.12280000        -52.38040000         68.61810000    2
  716866   1         -72.67850000        -32.27000000         67.56810000    0
  717023   1         -71.07320000        -30.23210000         68.77770000    0
  717548   1          -9.28682000        -19.92940000         67.09330000    0
  717755   1          -3.61349000        -15.83100000         69.62710000    0
  724825   1         -38.97880000        -54.39710000         69.76790000    2
  725885   1         -82.65000000        -34.31040000         70.76770000    0
  725886   1         -81.04520000        -32.27230000         71.97750000    0
  725890   1         -79.32740000        -32.28350000         69.69420000    0
  726767   1          -5.33069000        -15.83370000         71.89750000    0
  733490   1         -86.81220000        -62.59480000         73.12660000    0
  733970   1         -14.38420000        -52.26370000         73.90920000    0
  735190   1         -70.43980000        -28.17800000         74.63600000    0
  735194   1         -68.83720000        -26.14900000         75.84790000    0
  736359   1         -12.87910000         -5.76520000         75.17010000    0
  743160   1         -10.42530000        -48.17310000         78.66290000    0
  743739   1         -71.40240000        -36.24310000         79.32410000    0
  743897   1         -73.01080000        -34.23060000         78.09430000    0
  743899   1         -71.40820000        -32.20280000         79.30610000    0
  752718   1         -73.12350000        -36.23370000         81.61200000    0
  752877   1         -74.73160000        -34.22120000         80.38150000    0
  752878   1         -73.12960000        -32.19460000         81.59400000    0
  752880   1         -72.26580000        -34.21870000         80.45910000    0
  752883   1         -69.79990000        -34.21680000         80.53600000    0
  753028   1         -69.80620000        -30.17760000         80.51860000    0
  760856   1         -25.46300000        -56.26290000         85.26350000    0
  761419   1         -66.57840000        -42.28270000         83.00920000    0
  761423   1         -63.36850000        -42.27370000         85.44860000    0
  761916   1         -71.52160000        -34.20860000         82.82460000    0
  762407   1         -26.25660000        -24.10280000         82.91860000    2
  777359   1         -75.84230000        -82.58190000         92.30470000    0
  777493   1         -74.99100000        -80.57420000         91.14210000    0
  778275   1         -67.63900000        -64.42970000         91.26630000    2
  778473   1         -65.18030000        -60.39560000         91.32270000    2
  778475   1         -62.71300000        -60.39310000         91.39530000    2
 4206599   1         -66.79630000        -54.35530000         90.07850000    2
  778768   1         -59.39620000        -54.35060000         90.29630000    2
  778772   1         -56.92960000        -54.34810000         90.36640000    0
  778901   1         -60.26180000        -52.33140000         91.43700000    2
  778904   1         -56.07170000        -52.33750000         89.21100000    2
  779075   1         -60.26860000        -48.30200000         91.42280000    2
  779357   1         -71.74650000        -42.25340000         89.87990000    0
  777362   1         -73.37170000        -82.57620000         92.38080000    0
  787249   1         -64.42840000        -64.41070000         93.70640000    2
  787444   1         -66.03830000        -62.40480000         92.47760000    2
  787447   1         -63.57070000        -62.40220000         92.55080000    2
 4206601   1         -66.04670000        -58.37410000         92.46100000    2
  787575   1         -63.57950000        -58.37240000         92.53460000    2
  787746   1         -64.44600000        -56.35210000         93.67360000    2
 4206606   1         -66.91320000        -56.35290000         93.59910000    2
  787750   1         -63.58710000        -54.34250000         92.51910000    2
  787758   1         -56.18670000        -54.33770000         92.73350000    2
  788047   1         -60.38560000        -50.30360000         94.94520000    2
  788052   1         -56.19420000        -50.31090000         92.72020000    0
  788190   1         -56.20100000        -46.28430000         92.70730000    2
  794623   1         -94.88030000        -96.65870000         97.65550000    0
  804275   1         -77.81520000        -82.49910000        101.58700000    0
  823747   1         -53.34910000        -52.28190000        105.72500000    0
  851587   1         -40.52220000        -32.18150000        115.41400000    2
  851730   1         -41.37880000        -30.16880000        116.56100000    2
  913866   1         -84.13880000        -44.05910000        139.85200000    2
 1056145   1          -6.28742000        111.93900000       -189.58200000    0
 1057104   1         -13.95670000        130.20600000       -188.62600000    0
 4206665   1        -131.01100000        151.72000000       -186.73500000    0
 4206666   1        -128.53700000        151.67000000       -186.65300000    0
 1057950   1        -124.34000000        151.55100000       -188.83800000    0
 1058101   1        -125.17400000        153.59900000       -187.74200000    0
 4206668   1        -127.64900000        153.64900000       -187.82500000    0
 1058102   1        -122.70000000        153.54900000       -187.65900000    0
 1067225   1        -123.53300000        155.59600000       -186.56200000    0
 1067227   1        -121.05800000        155.54600000       -186.47900000    0
 1066909   1        -132.73400000        151.79000000       -184.46500000    0
 4206679   1        -130.26000000        151.74000000       -184.38300000    0
 4206682   1        -131.09600000        153.78800000       -183.28700000    0
 4206697   1        -128.62200000        153.73800000       -183.20500000    0
 4207476   1        -129.37300000        153.71800000       -185.55600000    0
 4206670   1        -126.89800000        153.66800000       -185.47400000    0
 4206683   1        -126.14800000        153.68800000       -183.12400000    0
 4206436   1        -124.42400000        153.61800000       -185.39200000    0
 1067224   1        -121.89100000        157.59300000       -185.38000000    0
 4206684   1        -122.78400000        155.61500000       -184.21300000    0
 1067228   1        -119.41600000        157.54300000       -185.29600000    0
 1067380   1        -120.24800000        159.58900000       -184.19500000    0
 1067384   1        -117.77200000        159.53900000       -184.11100000    0
 1075888   1        -134.45600000        151.86000000       -182.19400000    0
 1076055   1        -131.98200000        151.81100000       -182.11300000    0
 1076056   1        -132.81900000        153.85800000       -181.01600000    0
 1076059   1        -130.34500000        153.80900000       -180.93500000    0
 4206681   1        -123.67400000        153.63800000       -183.04300000    0
 4206698   1        -129.45700000        155.78500000       -182.10800000    0
 4206702   1        -127.81800000        157.78200000       -180.92800000    0
 4207480   1        -125.34400000        157.73100000       -180.84600000    0
 4207481   1        -126.98300000        155.73500000       -182.02600000    0
 4206700   1        -122.03500000        155.63500000       -181.86400000    0
 4206705   1        -122.86900000        157.68100000       -180.76500000    0
 4207479   1        -124.50900000        155.68500000       -181.94500000    0
 4206437   1        -121.14300000        157.61100000       -183.03100000    0
 4206693   1        -121.97600000        159.65700000       -181.93100000    0
 4206438   1        -119.50100000        159.60700000       -181.84700000    0
 1076364   1        -118.60300000        161.58500000       -183.00700000    0
 4206439   1        -120.33300000        161.65300000       -180.74500000    0
 1076543   1        -117.85700000        161.60300000       -180.66000000    0
 1076218   1        -131.18100000        155.85600000       -179.83700000    0
 4206701   1        -128.70800000        155.80500000       -179.75600000    0
 4206714   1        -127.06900000        157.80200000       -178.57700000    0
 4206715   1        -124.59500000        157.75100000       -178.49600000    0
 1085344   1        -125.43000000        159.79700000       -177.39600000    0
 1085346   1        -122.95600000        159.74600000       -177.31500000    0
 4206716   1        -123.70300000        159.72700000       -179.66500000    0
 4206704   1        -121.22900000        159.67600000       -179.58200000    0
 4206440   1        -122.06200000        161.72100000       -178.48100000    0
 1085518   1        -118.68800000        163.64700000       -179.55500000    0
 1085519   1        -120.41900000        163.71500000       -177.29300000    0
 1085520   1        -119.58700000        161.67100000       -178.39700000    0
 1094498   1        -122.14900000        163.78400000       -175.02900000    0
 1094499   1        -123.79000000        161.79100000       -176.21400000    0
 1094500   1        -121.31600000        161.74000000       -176.13200000    0
 1134931   1        -128.29100000         75.24590000       -159.81100000    2
 1169221   1        -163.14700000         43.97070000       -146.37700000    0
 1217546   1         -81.78480000        108.03400000       -131.01200000    2
 1230896   1        -155.67100000         16.16300000       -122.24700000    0
 1231387   1        -130.08400000         25.85640000       -122.93100000    0
 1237929   1         -58.45000000        156.39400000       -122.05800000    2
 1239616   1        -144.22300000         10.12620000       -120.65500000    0
 1239617   1        -145.08900000         12.14290000       -119.54900000    0
 1239618   1        -145.99200000         10.17880000       -118.33400000    0
 1239621   1        -142.61600000         12.12320000       -119.49100000    0
 1239916   1        -157.44300000         16.22110000       -119.93000000    0
 1242412   1          -9.11793000         65.61550000       -119.26900000    0
 1242413   1          -7.38755000         65.54980000       -121.52400000    0
 1242417   1          -5.78420000         63.56800000       -120.24100000    0
 1245153   1        -133.14200000        122.88200000       -120.02900000    0
 1248589   1        -144.38500000         12.17530000       -117.16900000    0
 1250929   1         -17.44510000         55.63750000       -118.21100000    0
 1257590   1        -153.56400000         12.28840000       -115.03300000    0
 1260262   1         -19.28020000         61.79140000       -112.61600000    0
 1314148   1         -55.25010000         57.99690000        -95.32800000    0
 1315252   1         -53.56650000         80.27380000        -94.52190000    0
 1315253   1         -51.94490000         82.30490000        -93.33990000    0
 1323014   1         -53.73950000         53.94600000        -90.57740000    0
 1332193   1         -46.51500000         60.06960000        -86.91100000    0
 1340393   1         -83.48890000         42.19510000        -84.41290000    0
 1341704   1         -60.46470000         68.27250000        -85.20730000    0
 1342153   1         -65.34340000         76.41580000        -85.52310000    0
 1348940   1         -88.58240000         32.24370000        -80.93040000    2
 1351026   1         -74.54310000         74.54130000        -79.97750000    0
 1351039   1         -59.78240000         74.41820000        -79.46440000    0
 1351987   1         -50.55510000         94.59050000        -81.89180000    0
 1359746   1         -69.75040000         68.45220000        -76.20730000    0
 1360658   1         -57.34140000         88.62400000        -76.16300000    0
 1360851   1         -44.88520000         90.56080000        -79.27830000    0
 1361599   1         -67.87250000        104.82500000        -79.17720000    0
 1366388   1         -53.51660000         21.65560000        -73.96670000    2
 1366389   1         -50.20240000         19.56060000        -75.00170000    2
 1366395   1         -47.73830000         19.51870000        -74.91730000    2
 1366559   1         -50.15620000         23.61080000        -75.05000000    2
 1367638   1         -80.50190000         46.34550000        -75.04950000    0
 1371105   1         -33.43650000        114.80000000        -74.76810000    0
 1378720   1         -51.77160000         86.64570000        -70.10740000    0
 1380953   1         -36.78110000        131.05900000        -70.53210000    0
 1386954   1         -60.10780000         72.50840000        -68.95090000    0
 1386955   1         -58.51610000         70.48480000        -67.69500000    0
 1390142   1         -35.16300000        133.09100000        -69.34790000    0
 1405123   1         -44.64190000         74.56810000        -62.62930000    0
 1405720   1         -44.57900000         86.69200000        -62.88700000    0
 1407949   1         -22.23790000        131.13300000        -63.03080000    0
 1412013   1        -110.77700000         33.20320000        -58.21810000    0
 1420408   1        -114.94800000         21.24950000        -55.69940000    0
 1438332   1        -121.64600000         19.46200000        -50.02000000    0
 1447010   1        -125.87400000         13.58220000        -44.21530000    0
 1453744   1         -28.46140000        147.61100000        -44.92760000    0
 1464653   1         -98.55820000          7.63585000        -39.90010000    2
 1556780   1        -120.58200000         54.74030000         -5.21362000    0
 1627933   1         -83.72790000         38.01060000         20.37860000    2
 1654788   1         -43.36970000         36.24780000         28.15670000    0
 1664101   1         -52.59800000         42.48950000         33.21120000    0
 1673896   1         -42.19360000         58.75400000         34.08540000    0
 1674041   1         -40.57520000         60.80020000         35.27810000    0
 1676853   1         -67.41700000        119.63400000         37.05250000    2
 1690947   1         -43.81280000         40.62990000         41.99630000    0
 1691120   1         -42.17680000         42.69240000         43.21960000    0
 1699941   1         -45.53390000         40.69500000         44.22270000    0
 1700098   1         -75.13060000         43.13930000         46.02490000    0
 1700118   1         -43.89860000         42.75870000         45.44230000    0
 1700260   1         -42.26190000         44.82250000         46.67110000    0
 1700264   1         -40.53840000         44.75510000         44.45030000    0
 1700578   1         -66.84510000         53.09800000         44.83780000    0
 1700737   1         -27.08260000         54.81520000         43.84010000    0
 1709079   1        -103.23800000         43.60440000         49.57560000    0
 1709080   1        -101.51500000         43.54560000         47.30830000    0
 1709082   1         -99.90720000         41.56720000         48.59390000    0
 1709083   1        -100.76700000         43.58660000         49.68020000    0
 1709087   1         -98.29360000         43.55620000         49.77310000    0
 1709108   1         -76.82350000         43.26370000         48.28670000    0
 1709197   1         -99.89840000         45.52980000         48.48710000    0
 1710054   1         -30.36070000         63.05660000         48.33400000    0
 1710513   1         -68.87780000         71.42970000         49.76770000    0
 1716832   1         -18.74840000         16.43860000         52.69320000    0
 1718048   1        -101.63100000         41.62710000         50.85800000    0
 1718050   1        -100.02100000         43.63110000         52.05440000    0
 1718167   1        -104.09900000         45.62300000         50.66840000    0
 1718172   1        -101.62800000         45.60790000         50.76950000    0
 1719721   1         -10.66830000         73.10800000         52.38260000    2
 1727128   1         -73.68910000         45.45800000         54.21380000    0
 1727442   1        -112.49800000         53.73120000         54.84300000    0
 1728743   1         -60.85360000         77.63500000         55.57510000    0
 1736006   1         -22.79470000         42.99580000         57.99390000    0
 1737860   1         -70.81720000         79.76000000         58.78200000    0
 1745444   1         -36.04380000         51.29750000         62.04780000    0
 1745917   1         -23.46620000         63.31660000         62.51920000    0
 1747163   1         -74.20850000         87.97170000         63.12610000    0
 1763828   1        -130.26300000         62.00150000         68.09550000    2
 1791428   1         -75.65460000         74.30470000         78.54150000    0
 1791614   1         -77.24010000         76.27430000         77.28480000    0
 1791619   1         -75.61900000         78.32710000         78.42740000    0
 1800421   1         -77.38650000         74.38510000         80.80450000    0
 1800595   1         -78.97070000         76.34750000         79.55280000    0
 1800596   1         -77.34720000         78.39900000         80.69960000    0
 1800598   1         -74.03400000         76.35990000         79.67700000    0
 1800600   1         -75.76180000         76.43360000         81.94740000    0
 4206441   1         -76.50240000         76.35540000         79.61510000    0
 1836773   1         -76.92880000         80.64530000         93.42890000    0
 1855634   1         -95.11530000         95.01190000        100.72400000    0
 2090924   1          -1.31624000        109.78600000        186.25800000    0
 2102024   1        -125.92600000        153.58000000        189.09300000    0
 2104771   1          95.06160000       -154.97100000       -186.64400000    0
 2104772   1          93.47110000       -152.96400000       -187.87000000    0
 2150239   1         171.62800000       -143.15600000       -170.94300000    0
 2306849   1           0.41781100        -53.07720000       -117.19600000    2
 2331962   1          83.10850000        -88.78450000       -106.41400000    0
 2349843   1          93.53230000        -94.91040000       -100.21900000    0
 2367875   1          74.33390000        -92.53640000        -94.91010000    0
 2368188   1          79.36600000        -88.59780000        -94.81940000    0
 2380287   1         174.77100000        -27.30690000        -89.29550000    0
 2387273   1           2.38329000        -64.73790000        -86.62180000    0
 2389486   1         176.42000000        -25.28710000        -88.11560000    0