ITEM: TIMESTEP
0
ITEM: NUMBER OF ATOMS
3537
ITEM: BOX BOUNDS pp pp pp
  -182.55305342919999        182.55305342919999     
  -184.03544330579999        184.03544330579999     
  -190.78410083220001        190.78410083220001     
ITEM: ATOMS id type x y z
           1 1  -14.435833366100001       -32.068816659800000       -92.442883315800003     
           2 1  -9.0445713800000007       -30.377254673800000       -92.478329784600007     
           3 1  -3.8942240603000000       -28.228463764200001       -92.440742214400004     
           4 1  0.77477623029999998       -26.133649707200000       -91.032784940900001     
           5 1   5.2087471907999996       -24.847043134700002       -88.738977452699999     
           6 1   9.5962956437999996       -23.207313837800001       -86.268538370300007     
           7 1   14.171832023200000       -21.055131453400001       -84.300005914300002     
           8 1   18.738484640700001       -19.765454027899999       -83.990719976299999     
           9 1   23.135227770299998       -19.301177770300001       -85.305527802900002     
          10 1  -16.057950001900000        99.522049995900005       -35.071933336599997     
          11 1  -18.488723789800002        102.35319015080000       -30.633145022800001     
          12 1  -22.178381500099999        104.96090164440000       -27.846024031500001     
          13 1  -25.895013353800000        108.61583183530000       -27.122479427199998     
          14 1  -28.022261013500000        112.75504090930001       -27.583932465400000     
          15 1  -28.984841651299998        116.64601853940000       -28.693611894899998     
          16 1  -61.501893331600002        4.5289872799999999E-002   181.18264444200003     
          17 1  -63.088042771799998        2.4310261166000000        185.36293109190001     
          18 1  -64.306749499299997        5.9060035287000003        188.66682095860003     
          19 1  -65.205040142200005        10.188832293800001        190.58782949310003     
          20 1  -66.037926936100007        14.100377920900000       -188.88327071859999     
          21 1  -65.111552846500004        18.632639761699998       -185.55808773960001     
          22 1  -62.577069487599999        23.779027152299999       -182.50773782210001     
          23 1  -60.345099223799998        27.467051461099999       -180.17678800990001     
          24 1  -58.597529978700003        29.859343338700000       -177.68499999030001     
          25 1  -106.98118887800000       -91.999798876000000       -52.373847781000002     
          26 1  -102.63488161479999       -92.598718211399998       -51.816037136699997     
          27 1  -97.930889070500001       -93.775538049399998       -50.485501951499998     
          28 1  -93.787377429900005       -96.535062367799995       -49.907649091300001     
          29 1  -90.638587876499997       -100.88054577590000       -50.325477541600002     
          30 1  -88.429814940300005       -104.91174478169999       -51.657320374500003     
          31 1  -87.067374090000001       -107.98393387090000       -52.585009079300001     
          32 1  -85.641431659600002       -111.70546664570000       -51.092241663899998     
          33 1   156.22232227050000        84.968122263799998        166.67824445360000     
          34 1   156.03387641609999        89.183965305200005        169.59800635040000     
          35 1   154.89057891600001        94.396603549700004        171.77780704020000     
          36 1   154.06494448309999        99.665596062099993        173.56320449629999     
          37 1   154.20725711759999        104.64034243019999        175.35920395740001     
          38 1   154.31175987050000        109.49998657150000        176.49679166810000     
          39 1   154.04275789869999        114.23200373109999        176.99932828470000     
          40 1   153.63230879439999        119.12250611380000        177.69135747560000     
          41 1   153.70176888230000        124.18472572000000        178.75914085630001     
          42 1   154.07781767189999        129.29568623700001        180.37512429440000     
          43 1   154.26452250529999        134.46307591479999        181.99070761170000     
          44 1   154.36658735969999        139.83984625790001        183.63669187700000     
          45 1   153.97227207789999        145.20870734069999        186.15682902789999     
          46 1   153.27119242379999        150.01688896210001        188.47487765829999     
          47 1   152.71095237110001        154.67208731779999        189.55075589190000     
          48 1   159.18359998749997        25.598491673400002        168.76701664870001     
          49 1   164.98475198339997        24.611842421100000        168.60232708280000     
          50 1   170.93338212229997        24.047162696000001        168.99946888660000     
          51 1   176.90944095619997        24.050988828800001        169.70199867069999     
          52 1  -182.44579686450001        24.243560611600000        170.65741806060001     
          53 1  -176.57887902360000        23.560316869200001        171.56427858379999     
          54 1  -170.74800527330001        22.149496292799999        172.30702554440001     
          55 1  -165.10877072360000        21.027929136600001        173.30208596150001     
          56 1  -158.78536755360000        20.550119925000001        174.47408185239999     
          57 1   159.18359998750000        25.598491673400002        168.76701664870001     
          58 1   159.87112985389999        30.653285298699998        169.46194519270000     
          59 1   161.07667600330001        35.302286117500003        169.65275807130001     
          60 1   161.03212297530001        39.972492910000000        168.80849093059999     
          61 1   161.02768310420001        45.016608376000001        168.63439479050001     
          62 1   162.66517620950000        50.008370577400001        169.80026675389999     
          63 1   163.73689017769999        54.812118521800002        170.40905677149999     
          64 1   163.73929943909999        59.646761965499998        170.27347710620000     
          65 1   163.51643275320001        64.381522121900005        170.85341267140001     
          66 1   162.89544446830001        69.079216671599994        172.78677776000001     
          67 1   79.067250000700000        60.854705566900002        91.657488913300000     
          68 1   78.662490586299995        59.257699241600001        95.886200135300001     
          69 1   79.390205949399999        58.352990947499997        100.31726921600000     
          70 1   80.421963258999995        57.435235750700002        105.22893357410000     
          71 1   81.828368454100001        56.089622057299998        109.36354033860000     
          72 1   84.878637799499998        54.553161914500002        112.20402935840001     
          73 1   88.250201668200006        53.820631615300002        115.45897327039999     
          74 1   90.800868109999996        53.887568968799997        118.94950523380000     
          75 1   94.225843678100006        54.062511433799997        120.93663832580000     
          76 1   98.639025344499998        53.531975375400002        121.92467371180000     
          77 1   102.98242224770000        51.871151450600003        122.77367193700000     
          78 1   106.33966780990001        49.396978432700003        122.99179167970000     
          79 1   109.15168169490001        46.293412111099997        122.21437232389999     
          80 1   112.31536395580000        43.178952683900000        120.91762597780000     
          81 1   115.00071567510000        39.861548969799998        119.63450428890000     
          82 1   118.02600655050000        35.988612213200000        118.96722856229999     
          83 1   121.67677974630000        32.731934808600002        119.30282942540001     
          84 1   124.90062899460000        30.307345972400000        119.49831041400000     
          85 1   128.91819363310000        28.110473149499999        118.02958516040000     
          86 1   132.95179039409999        26.317545604700001        115.47089547680000     
          87 1   135.53964905800001        25.457608228600002        112.04917507320000     
          88 1   137.47327037509999        26.158358356400001        107.57389725119999     
          89 1   138.03845935149999        27.563241821399998        103.46442550339999     
          90 1   137.43499998670001        28.904516666999999        99.450733342099994     
          91 1  -33.518216679500000        51.239983346899997        53.451208343200001     
          92 1  -28.300919130699999        50.960888974200003        53.543177683700002     
          93 1  -22.849011414800000        50.167268518299998        53.178061030499997     
          94 1  -17.059272037900001        49.190268749900000        53.009646394999997     
          95 1  -10.658460578000000        48.830251108799999        53.100934165799998     
          96 1  -4.1160488640999997        48.566510586299998        52.767114213399999     
          97 1   2.2248856904999998        47.992358994100002        52.070104952700000     
          98 1   8.7021037402000001        47.669550559800001        51.820533511800001     
          99 1   15.128410716699999        47.096191494700001        51.935772705200002     
         100 1   21.222443881899999        45.984429102299998        52.375487731600003     
         101 1   27.294880650800000        45.467890743300003        53.382553347500000     
         102 1   33.257155846400003        45.414677681699999        54.565161833300003     
         103 1   38.576146832600003        44.591696153800001        55.082933814999997     
         104 1   43.670512836299999        42.994212060899997        54.853398546599998     
         105 1   49.224522786000001        41.096998223299998        55.177837517100002     
         106 1   54.531877677499999        39.457705357999998        56.017244661299998     
         107 1   58.824696592700001        38.372646741300002        56.674559815999999     
         108 1   62.612256634600001        37.231916666899998        57.506394966499997     
         109 1   51.417462469500002        110.07737501310000        21.158341694600001     
         110 1   54.708707529300000        113.67360365350000        19.485341436700001     
         111 1   58.038178877800000        117.48917535930001        17.545473859800001     
         112 1   61.416877260200003        120.77026259530000        15.727177112100000     
         113 1   65.218169140300006        123.60371678520001        14.007755596000001     
         114 1   69.488198438400005        126.52159395220001        12.157795096999999     
         115 1   73.984197057000003        128.42889708690001        10.714642864200000     
         116 1   78.282246058400005        129.55537037389999        10.199582079500001     
         117 1   81.826582857800005        132.43363674590000        10.873259886200000     
         118 1   84.497747395100006        137.20151926410000        12.734170871100000     
         119 1   86.950237449499994        142.23459435850000        15.635332792700000     
         120 1   88.700806450700000        147.30166326759999        18.203730618400002     
         121 1   87.763736053499997        152.18868620379999        18.671479205099999     
         122 1   86.396903493899998        156.78063378639999        18.482130362300001     
         123 1   87.615303586799996        161.62187105340001        19.777164169999999     
         124 1   90.120535098399998        166.23000915530000        22.192237899599998     
         125 1   92.492789928400001        170.54535942900000        24.834919509700001     
         126 1   95.020085578299998        174.97465114060000        27.624918923500001     
         127 1   98.400124200999997        178.42911266359999        30.366729015400001     
         128 1   102.55904203010000        180.67288123450001        32.548970562599997     
         129 1   106.83436039740000        183.08250133310000        34.332942368300003     
         130 1   110.31857707930000       -182.03210234549996        36.602915554900001     
         131 1   112.45109601730000       -179.12342914749996        39.838382256599999     
         132 1   112.79873922720000       -176.12106015909998        43.206312771599997     
         133 1   111.56762248930001       -172.68407330569997        45.724893566200002     
         134 1   110.27875498310000       -169.39943921419999        47.936179907400003     
         135 1   110.02595964190000       -166.76091667169999        51.003173481700003     
         136 1   110.28077804620000       -164.46302829279998        55.291774743200001     
         137 1   109.78381225970000       -162.28553685399999        60.146787468500001     
         138 1   108.25255946999999       -160.30150917219999        64.521180528200006     
         139 1   106.96448987750000       -158.74992763019998        68.377376094400006     
         140 1   107.04790368880001       -157.94658600609998        72.755101646699998     
         141 1   107.56838922150000       -157.54500993679997        77.603952142400004     
         142 1   107.06473719320000       -157.19729445509998        82.053617892199995     
         143 1   105.15281946020001       -157.22925857619998        86.983659507400006     
         144 1   102.46072385430000       -157.44971945789999        93.217077801800002     
         145 1   28.889096398600000       -15.046182740200001       -58.202817869199997     
         146 1   28.459704247900000       -9.5894487555999994       -55.016050480300002     
         147 1   27.074378348700002       -5.0778630798000002       -51.628258972600001     
         148 1   26.379157077399999      -0.87690665940000001       -48.127864703199997     
         149 1   26.695924945200002        3.1598565347999998       -44.347091426299997     
         150 1   26.577043702699999        7.2857812065000003       -41.210420614599997     
         151 1   25.719124883700001        12.081441451500000       -39.611535536700003     
         152 1   25.007236590800002        17.341252371200000       -38.441684337900000     
         153 1   24.828319534100000        22.615774486399999       -36.710093781700003     
         154 1   24.634416590699999        27.683984691300001       -34.857271046000001     
         155 1   23.673560321899998        32.623179952800001       -33.902660451999999     
         156 1   22.085301000499999        37.520433455400003       -33.663665948199998     
         157 1   20.415636905600000        42.472109530200001       -33.593441609499997     
         158 1   17.944612043700001        47.651366559800003       -33.799141714900003     
         159 1   14.637102502099999        53.027741786199996       -33.951081866499997     
         160 1   11.019535029100000        57.732671459300001       -33.900041573700001     
         161 1   7.3732582518000003        61.637391975500002       -33.844476858199997     
         162 1   4.7648107212999999        66.068769424300001       -34.224428347299998     
         163 1   2.3759804111000000        71.137249058199998       -35.279573095700002     
         164 1 -0.77719009269999995        76.285120656100005       -36.862147630800003     
         165 1  -2.6652988931000001        81.170696050800004       -38.400007632600001     
         166 1  -2.9742742682999999        85.800476618299996       -39.449985652800002     
         167 1  -4.1492237967000003        90.767958002300006       -40.451046945400002     
         168 1  -6.7228635488000004        94.996121856000002       -40.867398396799999     
         169 1  -9.4389584750999997        97.676331026100002       -39.917400780400001     
         170 1  -11.997997206399999        100.36240279830000       -38.303069422900002     
         171 1   35.496278896500002        149.99416664259999       -60.673966677700001     
         172 1   37.331409591400003        154.02416187649999       -60.663417352700002     
         173 1   36.635483764800000        158.85829344129999       -61.527116624900003     
         174 1   34.878565850599998        163.72476532790000       -62.255502469400000     
         175 1   33.563626520200003        167.99736092760000       -62.086223402700000     
         176 1   31.861922364200002        172.20933255090000       -62.075301746699999     
         177 1   30.701552964699999        176.81696473790001       -62.707475651499998     
         178 1   29.964675909299999        181.88846967430001       -63.154928434799999     
         179 1   28.022200320900001       -181.22678739039998       -63.487625772500003     
         180 1   26.180055516600000       -176.62452554559997       -63.371696223400001     
         181 1   24.350335143500001       -171.84990706319996       -63.064686292099999     
         182 1   21.980671225599998       -167.79406141879997       -63.322744850699998     
         183 1   19.978043700600001       -164.68026294279997       -63.625346696699999     
         184 1   17.900772666000002       -160.83817595869996       -63.861508338599997     
         185 1   170.44274603590000        68.660972200000003        184.13709524500001     
         186 1   171.36185597369999        70.899526250999998        189.22396019890002     
         187 1   173.93231647790000        72.928602697399995       -188.49569957270000     
         188 1   177.52297393980001        74.253285322899998       -185.83979358590000     
         189 1   180.78762057020000        75.915955145300003       -182.98408188200000     
         190 1  -182.30981851769999        79.394766802000007       -179.48542358809999     
         191 1  -181.35006899669997        84.179166125699993       -176.69372563540000     
         192 1  -181.16879524049997        88.753260497400007       -175.04851488049999     
         193 1  -181.19932969109999        92.265872066699998       -173.76528614590001     
         194 1  -180.36322222639998        95.175222211299996       -172.31061114120001     
         195 1   73.557252786000006       -45.366169444100002        22.422577785200001     
         196 1   75.759991355899999       -40.752158994799998        20.909217356700001     
         197 1   77.122872859599994       -35.615033814999997        20.077528139599998     
         198 1   77.709538772100004       -30.609167322699999        19.330847869100001     
         199 1   78.447123288100002       -25.702345121499999        18.430835446600000     
         200 1   79.625159117899997       -20.607635863300001        17.183280782000001     
         201 1   80.468925686600002       -16.002273107699999        15.954392285899999     
         202 1   80.938907981599996       -12.409690989300000        15.332863333700001     
         203 1   81.730666653000000       -9.2708991740000002        14.490975023400001     
         204 1   102.91491668520000        12.847258340100000       -81.333558348099999     
         205 1   108.26175931080000        14.102158409699999       -80.663267500399996     
         206 1   113.54173026520000        15.375513501400000       -79.251711412700004     
         207 1   118.96330878009999        16.639475121200000       -77.340185603899997     
         208 1   124.57338014030000        19.027620091700001       -75.451296908299994     
         209 1   130.20132683160000        22.063918033899999       -73.732228304700001     
         210 1   135.82554218350000        24.531763904599998       -72.344643798700005     
         211 1   141.58857289980000        26.464707251600000       -71.157317318099999     
         212 1   147.29903727269999        28.518646846199999       -69.895146919599995     
         213 1   153.04749123319999        30.554695462500000       -68.713449152500004     
         214 1   158.91035308299999        32.164721396300003       -67.848397256900000     
         215 1   164.28305154090000        33.902768814300003       -67.825353375899994     
         216 1   169.27136179799999        35.466111514100000       -68.102449570100006     
         217 1   174.49975129230000        35.884072513299998       -67.355510424399995     
         218 1   179.44691659809999        36.033661459299999       -65.609619031099996     
         219 1  -181.20728080139997        37.169705683499998       -64.262871773699999     
         220 1  -176.32855558479997        38.656205543900001       -64.618883327600003     
         221 1  -27.158229909700001       -150.99979019790001       -160.85717857809999     
         222 1  -27.485095292099999       -147.00055425820000       -158.44599108360001     
         223 1  -28.961535479999998       -144.44235694439999       -154.78117173150000     
         224 1  -31.109890120100001       -143.07224674870000       -149.85202374139999     
         225 1  -32.611287028200003       -142.06639507400001       -144.68256971509999     
         226 1  -34.261738818500000       -141.64544863350000       -138.93716830020000     
         227 1  -36.078366800900000       -141.65914871589999       -132.71893245530001     
         228 1  -36.825300022900002       -141.65811113500001       -126.45716663120000     
         229 1   99.414988879199996       -129.51116667509999        124.56252780010000     
         230 1   97.293616240899993       -126.74887921880000        127.07942659250000     
         231 1   97.947056033099997       -122.52221532530000        129.03927898780000     
         232 1   100.87312268750000       -118.06711505560000        130.79856701780000     
         233 1   104.86180983860000       -114.92098839310000        133.46612192649999     
         234 1   108.98664217650000       -112.23356648970000        135.06518462139999     
         235 1   112.25371006690000       -109.50990835970001        134.91357733660001     
         236 1   115.40546521300000       -107.24337592760000        136.01640075629999     
         237 1   119.17809428240000       -105.37843109030000        138.40353543440000     
         238 1   122.85176185420001       -103.46080854380000        139.40373578670000     
         239 1   126.06044207040000       -100.78927935570000        138.43703523400001     
         240 1   129.67588361290001       -97.183437508699996        138.17288618510000     
         241 1   134.28375854780001       -93.198787872899999        139.69219254760000     
         242 1   138.76199836430001       -89.195291667700005        141.16174946449999     
         243 1   142.88512449129999       -85.497370688999993        141.94460711280001     
         244 1   147.04767768249999       -82.888899488899995        140.60418873309999     
         245 1   150.49721567399999       -81.804679366000002        136.19386114100001     
         246 1   152.71742896120000       -81.212788841800005        131.27780365609999     
         247 1   154.32349197290000       -78.971559169299994        127.81721364080001     
         248 1   156.13441247410000       -75.594545647999993        124.90966736039999     
         249 1   157.89039931670001       -72.573635436900005        122.09918774030000     
         250 1   160.07621205300001       -68.686324684900001        120.94030897130000     
         251 1   163.05729068880001       -64.319075139800006        120.97511914880000     
         252 1   166.10415086379999       -61.285575676199997        119.63143991880000     
         253 1   169.13428910639999       -58.688612773199999        116.15337482200000     
         254 1   171.66704324040001       -55.382856873900003        112.24494020320000     
         255 1   174.11325400420000       -51.223833748200001        110.95098469340000     
         256 1   176.92553089969999       -47.358743819300003        113.61412921720000     
         257 1   179.28413497599999       -46.273147793200003        117.99722073060001     
         258 1   181.67888578169999       -47.306070347999999        121.69288276300000     
         259 1  -180.65056900729999       -48.502172630399997        124.89836181130001     
         260 1  -177.66564367949999       -50.737127149400003        128.49283566730000     
         261 1  -174.83451766239997       -53.382932456799999        132.21953324660001     
         262 1  -172.14864082689999       -55.495428232599998        135.81677378920000     
         263 1  -169.19604083619998       -58.849753146399998        139.09316168800001     
         264 1  -166.54582626419997       -62.056448567700002        141.97582871279999     
         265 1  -163.91523344309999       -62.473983575299997        145.10759294170001     
         266 1  -160.65325334519997       -60.033364378100003        148.49139169220001     
         267 1  -157.05891400840000       -56.453297581800001        151.61098081230000     
         268 1  -153.74695730349998       -53.569178181700003        153.68490428550001     
         269 1  -150.64738094909998       -50.610525954200000        154.57730598690000     
         270 1  -146.87529287039999       -46.905770201000003        155.55601064539999     
         271 1  -142.14527777619998       -42.846894441099998        157.04416667760000     
         272 1   46.934625020799999       -97.968366638099994        39.652291647799998     
         273 1   45.185178153700001       -93.743471056199994        41.238896048900003     
         274 1   41.962518275299999       -90.103250047100005        43.945385554799998     
         275 1   39.120640129800002       -86.908361996799997        47.896431743400001     
         276 1   37.631385251200001       -83.565514133600004        52.010026139200001     
         277 1   36.058710759800000       -79.544100596500002        55.649126547599998     
         278 1   33.781406775400001       -75.041903680299995        58.736244607800003     
         279 1   31.136288876399998       -70.758228974800005        61.348206405100001     
         280 1   28.286377588499999       -66.230714788800000        63.850411264199998     
         281 1   26.692329636800000       -56.354556910600003        77.424127311199996     
         282 1   32.105301949299999       -56.736841799700002        79.551092135499999     
         283 1   38.062946234400002       -56.918265997399999        80.871355285299998     
         284 1   43.767038420100000       -56.123620524700002        81.875201732899995     
         285 1   49.565066373199997       -55.008477163099997        82.713656079499998     
         286 1   55.966954224399998       -54.694725807399998        83.118926818999995     
         287 1   62.465338657499998       -54.463071412399998        83.114630898800002     
         288 1   68.694000592699993       -53.706782408899997        83.351956506799993     
         289 1   74.931521157800006       -53.157456534200001        84.028607297099995     
         290 1   81.400905111399993       -53.167990838700000        84.498866328700004     
         291 1   87.698898563699998       -53.779519611600001        84.990987731700002     
         292 1   93.883242762500004       -54.790293285300002        85.361158658099995     
         293 1   100.46811112669999       -55.569725001599998        85.056086108100004     
         294 1   102.46072385430000       -157.44971945789999        93.217077801800002     
         295 1   103.16225528030000       -155.86726953150000        98.824112033399999     
         296 1   101.98614611350000       -151.38253541559999        102.75886294870000     
         297 1   100.79809520729999       -146.13862429430000        105.90977192660000     
         298 1   100.77694889030001       -141.87587054529999        109.62326267170000     
         299 1   101.43225079350000       -138.41184769270001        113.69289200980000     
         300 1   101.09231710540000       -136.19316759690000        117.73073256580000     
         301 1   100.09438476010000       -134.46184308740001        121.34222290250000     
         302 1   100.09370390310001       -132.48120001530000        124.52694444170000     
         303 1  -62.229360015799998       -138.46364998870001       -60.254028348100000     
         304 1  -56.407979928200000       -138.23243223610001       -58.529018607399998     
         305 1  -50.012643254700002       -138.22241062649999       -58.139256252400003     
         306 1  -43.393954159200000       -138.28838978510001       -58.270063436599997     
         307 1  -36.767654274900003       -138.28713924540000       -58.214513438200001     
         308 1  -30.384884319800001       -138.41456140470001       -58.409506802000003     
         309 1  -24.513488334800002       -138.91782950289999       -59.058903843000003     
         310 1  -18.724258460200002       -139.66918422740000       -59.388704219799997     
         311 1  -12.981728271600000       -140.41787194610001       -59.696053672700003     
         312 1  -7.6594359738000000       -141.53305827529999       -60.110973902300003     
         313 1  -2.7054720575000002       -143.42464834059999       -60.046890940300003     
         314 1   2.0572706044000002       -145.43955202570001       -60.510051424300002     
         315 1   6.4970201540000003       -147.71975174720001       -61.279951101700000     
         316 1   10.275039672600000       -151.27237970709999       -61.382154612500003     
         317 1   13.553964986600000       -155.18602715910001       -61.194636598099997     
         318 1   16.232550056699999       -158.21018173089999       -61.733285128299997     
         319 1   17.900772666000002       -160.83817595869999       -63.861508338599997     