ITEM: TIMESTEP
214
ITEM: NUMBER OF ATOMS
4406007
ITEM: BOX BOUNDS pp pp pp
-182.5530534292 182.5530534292
-184.0354433058 184.0354433058
-190.7841008322 190.7841008322
ITEM: ATOMS id type x y z
5 1 -180.514 -183.242 -190.235
