 selected interstitial atom positions, away
         825 atoms
 1 atom types
  -178.88222628310001        178.88222628310001       xlo xhi
  -180.48189673990001        180.48189673990001       ylo yhi
  -189.59196348419999        189.59196348419999       zlo zhi

Atoms

       1   1        -138.02800000        -58.38260000       -142.50200000
       2   1         -59.34520000        -22.24420000       -142.42500000
       3   1         -79.67140000         -3.77242000       -142.39600000
       4   1        -101.37300000        -23.98430000       -140.21200000
       5   1         -95.07100000         -5.14783000       -132.22900000
       6   1         -95.93130000         -3.05095000       -131.13100000
       7   1         -79.59190000        -71.24790000       -112.52700000
       8   1         -81.17350000        -69.21500000       -113.77500000
       9   1         -84.92710000        -79.08870000       -105.56300000
      10   1        -104.02700000        -78.70650000       -103.88200000
      11   1         -91.65820000        -72.83580000       -100.04000000
      12   1         -81.18980000        -85.07780000        -97.15940000
      13   1         -89.40300000        -78.86190000        -96.36060000
      14   1         -90.07940000        -74.86090000        -98.78580000
      15   1         -85.95840000        -72.91050000        -97.51280000
      16   1         -87.53700000        -70.88450000        -98.76810000
      17   1         -85.89590000        -68.88580000        -97.58210000
      18   1         -79.58460000        -76.98940000        -92.55410000
      19   1         -81.32700000        -76.90970000        -90.26950000
      20   1         -78.84750000        -76.96350000        -90.18820000
      21   1         -96.44110000        -82.60420000        -87.19600000
      22   1         -83.07060000        -76.82950000        -87.98620000
      23   1         -80.59110000        -76.88130000        -87.90280000
      24   1         -96.30690000        -74.55370000        -87.31980000
      25   1         -83.91090000        -74.77760000        -86.88060000
      26   1         -81.43160000        -74.82870000        -86.79700000
      27   1         -77.20840000        -74.96750000        -89.00260000
      28   1         -78.04920000        -72.91430000        -87.89790000
      29   1         -79.68770000        -74.91160000        -89.08190000
      30   1         -78.95240000        -74.88260000        -86.71550000
      31   1         -75.57020000        -72.97270000        -87.82110000
      32   1         -76.41170000        -70.91820000        -86.71810000
      33   1         -84.08300000        -76.71520000        -83.33660000
      34   1         -85.65650000        -74.69620000        -84.59940000
      35   1         -83.17720000        -74.74520000        -84.51370000
      36   1         -80.69780000        -74.79690000        -84.42980000
      37   1         -79.79350000        -72.82870000        -85.61120000
      38   1         -77.31450000        -72.88500000        -85.53200000
      39   1         -99.73050000        -70.38330000        -82.84090000
      40   1         -84.01850000        -72.69120000        -83.40990000
      41   1         -81.53940000        -72.74220000        -83.32600000
      42   1         -79.06030000        -72.79610000        -83.24430000
      43   1         -78.15640000        -70.82960000        -84.42930000
      44   1         -75.67770000        -70.88870000        -84.35320000
      45   1         -78.99870000        -68.77330000        -83.32770000
      46   1         -74.77520000        -68.92360000        -85.54340000
      47   1         -76.52040000        -68.83180000        -83.25220000
      48   1         -22.12100000        -82.41560000        -81.39790000
      49   1         -83.28730000        -72.65500000        -81.04270000
      50   1         -81.65090000        -70.64910000        -79.85640000
      51   1         -79.90270000        -70.73980000        -82.14190000
      52   1         -82.38140000        -70.68660000        -82.22340000
      53   1         -80.74540000        -68.68260000        -81.04040000
      54   1         -78.26700000        -68.73840000        -80.96200000
      55   1         -73.74240000        -86.86200000        -76.93350000
      56   1         -84.84380000        -60.49030000        -79.00470000
      57   1         -49.77180000        -85.70420000        -75.16720000
      58   1         -73.78930000        -80.74320000        -73.51920000
      59   1         -97.47800000        -66.23460000        -75.81890000
      60   1        -157.31700000       -123.82000000        -71.37590000
      61   1         -78.18330000        -88.62510000        -71.18510000
      62   1         -42.42440000        -83.91580000        -71.51130000
      63   1         -72.15060000        -78.74330000        -72.33020000
      64   1         -62.39480000        -80.97450000        -68.45180000
      65   1         -42.52660000        -81.88170000        -68.04320000
      66   1         -34.16690000        -80.05860000        -68.97540000
      67   1         -34.48780000        -98.29770000        -65.36230000
      68   1         -32.08050000        -92.27180000        -61.82470000
      69   1         -32.01070000        -84.14330000        -61.86260000
      70   1         -33.59410000        -82.07860000        -63.09550000
      71   1         -41.23440000        -88.03100000        -59.80180000
      72   1         -57.01540000       -100.30900000        -55.85020000
      73   1         -48.10890000        -96.29730000        -50.77570000
      74   1         -34.48280000        -98.59990000        -42.06310000
      75   1         -36.06700000        -96.55760000        -43.29490000
      76   1        -109.78500000       -154.05000000        -31.04540000
      77   1        -112.86300000       -149.96100000        -33.20920000
      78   1        -111.26200000       -151.98400000        -31.99090000
      79   1         -88.22610000        -87.48400000        -31.86290000
      80   1         -89.94150000        -87.39120000        -29.63390000
      81   1          -0.29470100        -81.01280000        -30.41040000
      82   1        -103.01200000        -44.73510000        -29.74850000
      83   1          -0.60880400       -127.28100000        -26.66430000
      84   1          -1.46488000       -125.25500000        -25.54120000
      85   1          -4.87292000        -76.99860000        -21.16050000
      86   1          -3.99506000        -75.00090000        -22.30460000
      87   1          -3.27616000        -75.00470000        -19.94300000
      88   1         -77.99780000        -94.72540000        -15.23710000
      89   1         -75.51100000        -94.71160000        -15.21420000
      90   1         -77.25680000        -94.72960000        -12.90730000
      91   1          -9.16098000        -91.03540000          0.96151400
      92   1          -8.28795000        -89.02890000         -0.18614800
      93   1         -11.09360000        -50.76170000          3.12469000
      94   1          -7.73771000        -52.80310000          2.07350000
      95   1          -5.42616000        -50.77330000          5.62998000
      96   1          -8.77802000        -48.73110000          6.68054000
      97   1         -83.83800000        -99.57030000         22.00890000
      98   1         -72.47340000       -101.46400000         30.53820000
      99   1         -69.99500000       -101.43700000         30.61640000
     100   1         -67.51720000       -101.40500000         30.69770000
     101   1         -71.70630000       -101.43700000         32.89890000
     102   1         -69.22900000       -101.41100000         32.97610000
     103   1         -65.87700000        -66.87130000         31.72730000
     104   1         -84.17210000        -87.30230000         35.98010000
     105   1         -71.79110000        -79.05800000         36.28530000
     106   1         -73.50360000        -79.06100000         38.56580000
     107   1         -76.06200000        -89.19590000         42.05340000
     108   1         -77.76830000        -89.18590000         44.34470000
     109   1         -76.14460000        -91.18650000         45.57280000
     110   1         -76.15040000        -87.13450000         45.54430000
     111   1         -81.10410000        -75.02580000         45.33530000
     112   1         -61.34990000       -105.22400000         49.61450000
     113   1         -50.61200000        -99.09460000         48.71460000
     114   1         -80.32220000        -91.18930000         47.80510000
     115   1         -78.72110000        -72.94560000         48.89260000
     116   1         -42.47660000         -3.86048000         47.40500000
     117   1          -2.17181000        -28.11110000         51.03060000
     118   1         -30.24490000         -9.89369000         51.29540000
     119   1         -31.10180000        -11.91770000         52.43630000
     120   1         -42.60030000         -1.79754000         50.90890000
     121   1         -50.86070000        -78.79960000         55.56500000
     122   1          -3.25839000        -26.02350000         59.13760000
     123   1          -4.87267000        -24.00960000         57.92450000
     124   1          -9.82224000        -19.96960000         57.76720000
     125   1          -3.26704000        -21.97070000         59.14430000
     126   1          -8.21710000        -17.93070000         58.98790000
     127   1          -4.97773000        -26.01410000         61.40690000
     128   1          -4.12250000        -23.99200000         60.27560000
     129   1          -3.37219000        -23.97470000         62.62690000
     130   1          -1.65271000        -23.98450000         60.35710000
     131   1          -1.67228000        -15.87870000         60.37430000
     132   1         -87.32790000        -86.97740000         63.96830000
     133   1         -73.38200000        -80.83690000         65.45280000
     134   1         -25.57330000        -78.64330000         65.59070000
     135   1         -75.01450000        -70.74320000         64.17340000
     136   1         -41.34310000        -52.40150000         66.19970000
     137   1         -13.36100000        -21.98240000         65.79170000
     138   1         -10.06440000        -11.82640000         64.76290000
     139   1         -82.50150000        -80.84900000         67.54120000
     140   1         -42.19880000        -54.41920000         67.34980000
     141   1         -38.12280000        -52.38040000         68.61810000
     142   1         -72.67850000        -32.27000000         67.56810000
     143   1         -71.07320000        -30.23210000         68.77770000
     144   1          -9.28682000        -19.92940000         67.09330000
     145   1          -3.61349000        -15.83100000         69.62710000
     146   1         -38.97880000        -54.39710000         69.76790000
     147   1         -82.65000000        -34.31040000         70.76770000
     148   1         -81.04520000        -32.27230000         71.97750000
     149   1         -79.32740000        -32.28350000         69.69420000
     150   1          -5.33069000        -15.83370000         71.89750000
     151   1         -86.81220000        -62.59480000         73.12660000
     152   1         -14.38420000        -52.26370000         73.90920000
     153   1         -70.43980000        -28.17800000         74.63600000
     154   1         -68.83720000        -26.14900000         75.84790000
     155   1         -12.87910000         -5.76520000         75.17010000
     156   1         -10.42530000        -48.17310000         78.66290000
     157   1         -71.40240000        -36.24310000         79.32410000
     158   1         -73.01080000        -34.23060000         78.09430000
     159   1         -71.40820000        -32.20280000         79.30610000
     160   1         -73.12350000        -36.23370000         81.61200000
     161   1         -74.73160000        -34.22120000         80.38150000
     162   1         -73.12960000        -32.19460000         81.59400000
     163   1         -72.26580000        -34.21870000         80.45910000
     164   1         -69.79990000        -34.21680000         80.53600000
     165   1         -69.80620000        -30.17760000         80.51860000
     166   1         -25.46300000        -56.26290000         85.26350000
     167   1         -66.57840000        -42.28270000         83.00920000
     168   1         -63.36850000        -42.27370000         85.44860000
     169   1         -71.52160000        -34.20860000         82.82460000
     170   1         -26.25660000        -24.10280000         82.91860000
     171   1         -75.84230000        -82.58190000         92.30470000
     172   1         -74.99100000        -80.57420000         91.14210000
     173   1         -67.63900000        -64.42970000         91.26630000
     174   1         -65.18030000        -60.39560000         91.32270000
     175   1         -62.71300000        -60.39310000         91.39530000
     176   1         -66.79630000        -54.35530000         90.07850000
     177   1         -59.39620000        -54.35060000         90.29630000
     178   1         -56.92960000        -54.34810000         90.36640000
     179   1         -60.26180000        -52.33140000         91.43700000
     180   1         -56.07170000        -52.33750000         89.21100000
     181   1         -60.26860000        -48.30200000         91.42280000
     182   1         -71.74650000        -42.25340000         89.87990000
     183   1         -73.37170000        -82.57620000         92.38080000
     184   1         -64.42840000        -64.41070000         93.70640000
     185   1         -66.03830000        -62.40480000         92.47760000
     186   1         -63.57070000        -62.40220000         92.55080000
     187   1         -66.04670000        -58.37410000         92.46100000
     188   1         -63.57950000        -58.37240000         92.53460000
     189   1         -64.44600000        -56.35210000         93.67360000
     190   1         -66.91320000        -56.35290000         93.59910000
     191   1         -63.58710000        -54.34250000         92.51910000
     192   1         -56.18670000        -54.33770000         92.73350000
     193   1         -60.38560000        -50.30360000         94.94520000
     194   1         -56.19420000        -50.31090000         92.72020000
     195   1         -56.20100000        -46.28430000         92.70730000
     196   1         -94.88030000        -96.65870000         97.65550000
     197   1         -77.81520000        -82.49910000        101.58700000
     198   1         -53.34910000        -52.28190000        105.72500000
     199   1         -40.52220000        -32.18150000        115.41400000
     200   1         -41.37880000        -30.16880000        116.56100000
     201   1         -84.13880000        -44.05910000        139.85200000
     202   1          -6.28742000        111.93900000       -189.58200000
     203   1         -13.95670000        130.20600000       -188.62600000
     204   1        -131.01100000        151.72000000       -186.73500000
     205   1        -128.53700000        151.67000000       -186.65300000
     206   1        -124.34000000        151.55100000       -188.83800000
     207   1        -125.17400000        153.59900000       -187.74200000
     208   1        -127.64900000        153.64900000       -187.82500000
     209   1        -122.70000000        153.54900000       -187.65900000
     210   1        -123.53300000        155.59600000       -186.56200000
     211   1        -121.05800000        155.54600000       -186.47900000
     212   1        -132.73400000        151.79000000       -184.46500000
     213   1        -130.26000000        151.74000000       -184.38300000
     214   1        -131.09600000        153.78800000       -183.28700000
     215   1        -128.62200000        153.73800000       -183.20500000
     216   1        -129.37300000        153.71800000       -185.55600000
     217   1        -126.89800000        153.66800000       -185.47400000
     218   1        -126.14800000        153.68800000       -183.12400000
     219   1        -124.42400000        153.61800000       -185.39200000
     220   1        -121.89100000        157.59300000       -185.38000000
     221   1        -122.78400000        155.61500000       -184.21300000
     222   1        -119.41600000        157.54300000       -185.29600000
     223   1        -120.24800000        159.58900000       -184.19500000
     224   1        -117.77200000        159.53900000       -184.11100000
     225   1        -134.45600000        151.86000000       -182.19400000
     226   1        -131.98200000        151.81100000       -182.11300000
     227   1        -132.81900000        153.85800000       -181.01600000
     228   1        -130.34500000        153.80900000       -180.93500000
     229   1        -123.67400000        153.63800000       -183.04300000
     230   1        -129.45700000        155.78500000       -182.10800000
     231   1        -127.81800000        157.78200000       -180.92800000
     232   1        -125.34400000        157.73100000       -180.84600000
     233   1        -126.98300000        155.73500000       -182.02600000
     234   1        -122.03500000        155.63500000       -181.86400000
     235   1        -122.86900000        157.68100000       -180.76500000
     236   1        -124.50900000        155.68500000       -181.94500000
     237   1        -121.14300000        157.61100000       -183.03100000
     238   1        -121.97600000        159.65700000       -181.93100000
     239   1        -119.50100000        159.60700000       -181.84700000
     240   1        -118.60300000        161.58500000       -183.00700000
     241   1        -120.33300000        161.65300000       -180.74500000
     242   1        -117.85700000        161.60300000       -180.66000000
     243   1        -131.18100000        155.85600000       -179.83700000
     244   1        -128.70800000        155.80500000       -179.75600000
     245   1        -127.06900000        157.80200000       -178.57700000
     246   1        -124.59500000        157.75100000       -178.49600000
     247   1        -125.43000000        159.79700000       -177.39600000
     248   1        -122.95600000        159.74600000       -177.31500000
     249   1        -123.70300000        159.72700000       -179.66500000
     250   1        -121.22900000        159.67600000       -179.58200000
     251   1        -122.06200000        161.72100000       -178.48100000
     252   1        -118.68800000        163.64700000       -179.55500000
     253   1        -120.41900000        163.71500000       -177.29300000
     254   1        -119.58700000        161.67100000       -178.39700000
     255   1        -122.14900000        163.78400000       -175.02900000
     256   1        -123.79000000        161.79100000       -176.21400000
     257   1        -121.31600000        161.74000000       -176.13200000
     258   1        -128.29100000         75.24590000       -159.81100000
     259   1        -163.14700000         43.97070000       -146.37700000
     260   1         -81.78480000        108.03400000       -131.01200000
     261   1        -155.67100000         16.16300000       -122.24700000
     262   1        -130.08400000         25.85640000       -122.93100000
     263   1         -58.45000000        156.39400000       -122.05800000
     264   1        -144.22300000         10.12620000       -120.65500000
     265   1        -145.08900000         12.14290000       -119.54900000
     266   1        -145.99200000         10.17880000       -118.33400000
     267   1        -142.61600000         12.12320000       -119.49100000
     268   1        -157.44300000         16.22110000       -119.93000000
     269   1          -9.11793000         65.61550000       -119.26900000
     270   1          -7.38755000         65.54980000       -121.52400000
     271   1          -5.78420000         63.56800000       -120.24100000
     272   1        -133.14200000        122.88200000       -120.02900000
     273   1        -144.38500000         12.17530000       -117.16900000
     274   1         -17.44510000         55.63750000       -118.21100000
     275   1        -153.56400000         12.28840000       -115.03300000
     276   1         -19.28020000         61.79140000       -112.61600000
     277   1         -55.25010000         57.99690000        -95.32800000
     278   1         -53.56650000         80.27380000        -94.52190000
     279   1         -51.94490000         82.30490000        -93.33990000
     280   1         -53.73950000         53.94600000        -90.57740000
     281   1         -46.51500000         60.06960000        -86.91100000
     282   1         -83.48890000         42.19510000        -84.41290000
     283   1         -60.46470000         68.27250000        -85.20730000
     284   1         -65.34340000         76.41580000        -85.52310000
     285   1         -88.58240000         32.24370000        -80.93040000
     286   1         -74.54310000         74.54130000        -79.97750000
     287   1         -59.78240000         74.41820000        -79.46440000
     288   1         -50.55510000         94.59050000        -81.89180000
     289   1         -69.75040000         68.45220000        -76.20730000
     290   1         -57.34140000         88.62400000        -76.16300000
     291   1         -44.88520000         90.56080000        -79.27830000
     292   1         -67.87250000        104.82500000        -79.17720000
     293   1         -53.51660000         21.65560000        -73.96670000
     294   1         -50.20240000         19.56060000        -75.00170000
     295   1         -47.73830000         19.51870000        -74.91730000
     296   1         -50.15620000         23.61080000        -75.05000000
     297   1         -80.50190000         46.34550000        -75.04950000
     298   1         -33.43650000        114.80000000        -74.76810000
     299   1         -51.77160000         86.64570000        -70.10740000
     300   1         -36.78110000        131.05900000        -70.53210000
     301   1         -60.10780000         72.50840000        -68.95090000
     302   1         -58.51610000         70.48480000        -67.69500000
     303   1         -35.16300000        133.09100000        -69.34790000
     304   1         -44.64190000         74.56810000        -62.62930000
     305   1         -44.57900000         86.69200000        -62.88700000
     306   1         -22.23790000        131.13300000        -63.03080000
     307   1        -110.77700000         33.20320000        -58.21810000
     308   1        -114.94800000         21.24950000        -55.69940000
     309   1        -121.64600000         19.46200000        -50.02000000
     310   1        -125.87400000         13.58220000        -44.21530000
     311   1         -28.46140000        147.61100000        -44.92760000
     312   1         -98.55820000          7.63585000        -39.90010000
     313   1        -120.58200000         54.74030000         -5.21362000
     314   1         -83.72790000         38.01060000         20.37860000
     315   1         -43.36970000         36.24780000         28.15670000
     316   1         -52.59800000         42.48950000         33.21120000
     317   1         -42.19360000         58.75400000         34.08540000
     318   1         -40.57520000         60.80020000         35.27810000
     319   1         -67.41700000        119.63400000         37.05250000
     320   1         -43.81280000         40.62990000         41.99630000
     321   1         -42.17680000         42.69240000         43.21960000
     322   1         -45.53390000         40.69500000         44.22270000
     323   1         -75.13060000         43.13930000         46.02490000
     324   1         -43.89860000         42.75870000         45.44230000
     325   1         -42.26190000         44.82250000         46.67110000
     326   1         -40.53840000         44.75510000         44.45030000
     327   1         -66.84510000         53.09800000         44.83780000
     328   1         -27.08260000         54.81520000         43.84010000
     329   1        -103.23800000         43.60440000         49.57560000
     330   1        -101.51500000         43.54560000         47.30830000
     331   1         -99.90720000         41.56720000         48.59390000
     332   1        -100.76700000         43.58660000         49.68020000
     333   1         -98.29360000         43.55620000         49.77310000
     334   1         -76.82350000         43.26370000         48.28670000
     335   1         -99.89840000         45.52980000         48.48710000
     336   1         -30.36070000         63.05660000         48.33400000
     337   1         -68.87780000         71.42970000         49.76770000
     338   1         -18.74840000         16.43860000         52.69320000
     339   1        -101.63100000         41.62710000         50.85800000
     340   1        -100.02100000         43.63110000         52.05440000
     341   1        -104.09900000         45.62300000         50.66840000
     342   1        -101.62800000         45.60790000         50.76950000
     343   1         -10.66830000         73.10800000         52.38260000
     344   1         -73.68910000         45.45800000         54.21380000
     345   1        -112.49800000         53.73120000         54.84300000
     346   1         -60.85360000         77.63500000         55.57510000
     347   1         -22.79470000         42.99580000         57.99390000
     348   1         -70.81720000         79.76000000         58.78200000
     349   1         -36.04380000         51.29750000         62.04780000
     350   1         -23.46620000         63.31660000         62.51920000
     351   1         -74.20850000         87.97170000         63.12610000
     352   1        -130.26300000         62.00150000         68.09550000
     353   1         -75.65460000         74.30470000         78.54150000
     354   1         -77.24010000         76.27430000         77.28480000
     355   1         -75.61900000         78.32710000         78.42740000
     356   1         -77.38650000         74.38510000         80.80450000
     357   1         -78.97070000         76.34750000         79.55280000
     358   1         -77.34720000         78.39900000         80.69960000
     359   1         -74.03400000         76.35990000         79.67700000
     360   1         -75.76180000         76.43360000         81.94740000
     361   1         -76.50240000         76.35540000         79.61510000
     362   1         -76.92880000         80.64530000         93.42890000
     363   1         -95.11530000         95.01190000        100.72400000
     364   1          -1.31624000        109.78600000        186.25800000
     365   1        -125.92600000        153.58000000        189.09300000
     366   1          95.06160000       -154.97100000       -186.64400000
     367   1          93.47110000       -152.96400000       -187.87000000
     368   1         171.62800000       -143.15600000       -170.94300000
     369   1           0.41781100        -53.07720000       -117.19600000
     370   1          83.10850000        -88.78450000       -106.41400000
     371   1          93.53230000        -94.91040000       -100.21900000
     372   1          74.33390000        -92.53640000        -94.91010000
     373   1          79.36600000        -88.59780000        -94.81940000
     374   1         174.77100000        -27.30690000        -89.29550000
     375   1           2.38329000        -64.73790000        -86.62180000
     376   1         176.42000000        -25.28710000        -88.11560000
     377   1         160.53300000        -67.34900000        -84.73920000
     378   1          90.54090000        -78.50060000        -79.42920000
     379   1          66.99190000        -14.07430000        -81.44280000
     380   1          65.60060000        -48.08230000        -79.25810000
     381   1          74.79670000        -70.13530000        -75.23060000
     382   1          66.56230000        -25.95680000        -74.08380000
     383   1          63.42380000        -51.78000000        -69.82340000
     384   1          91.86960000        -42.24570000        -70.48790000
     385   1          80.73950000        -11.97090000        -72.72750000
     386   1          66.29960000        -63.78640000        -67.29010000
     387   1          64.75190000        -61.79060000        -68.52030000
     388   1          88.55500000        -40.17980000        -69.46630000
     389   1          84.53690000        -28.02410000        -67.53770000
     390   1          72.20410000        -11.86550000        -68.43100000
     391   1           5.19796000        -95.00260000        -64.10260000
     392   1          68.34630000        -45.70040000        -66.24550000
     393   1          79.40140000        -29.93400000        -64.20350000
     394   1          78.58090000        -15.86700000        -63.41010000
     395   1          64.54200000         -1.75952000        -65.48560000
     396   1          75.87630000        -13.84260000        -60.05970000
     397   1          80.17640000        -13.85430000        -62.22780000
     398   1          58.65150000       -103.87200000        -57.80130000
     399   1          58.67670000        -49.21000000        -57.01150000
     400   1          58.75820000        -45.14450000        -57.05870000
     401   1          65.57640000        -41.26780000        -59.25830000