 selected interstitial atom positions, near
           7 atoms
 1 atom types
 0.0 0.0 xlo xhi
 0.0 0.0 ylo yhi
 0.0 0.0 zlo zhi

Atoms

       1   1         -25.78740000        -36.78480000       -188.95400000
       2   1        -109.51900000        179.10700000       -141.60700000
       3   1         132.93600000        -55.45050000       -141.72400000
       4   1         103.79900000        -75.58860000         -0.71834900
       5   1         163.02200000       -164.97500000        115.44100000
       6   1         163.72200000       -164.72200000        117.94500000
       7   1          94.89940000        143.89000000       -149.99300000
