 dislocation atom positions
        5002 atoms
 1 atom types
 0.0 0.0 xlo xhi
 0.0 0.0 ylo yhi
 0.0 0.0 zlo zhi

Atoms

       1   1        -132.88616667       -129.20341664         48.06365417
       2   1        -130.85594228       -130.44932564         48.42214927
       3   1        -128.82571789       -131.69523464         48.78064438
       4   1        -126.45357326       -132.49727135         48.50523467
       5   1        -124.08142863       -133.29930805         48.22982496
       6   1        -121.53397726       -134.00248112         47.85409438
       7   1        -118.98652590       -134.70565419         47.47836380
       8   1        -116.37719859       -135.46562382         47.12699536
       9   1        -113.76787127       -136.22559346         46.77562692
      10   1        -111.12306898       -136.97969986         46.06350027
      11   1        -108.47826669       -137.73380626         45.35137362
      12   1        -105.95775395       -137.92027014         44.72330307
      13   1        -103.43724121       -138.10673402         44.09523253
      14   1        -100.80022698       -137.36567144         44.21785778
      15   1         -98.16321276       -136.62460886         44.34048304
      16   1         -96.23700603       -136.14503906         44.48732716
      17   1         -94.31079930       -135.66546925         44.63417128
      18   1         -92.38459257       -135.18589945         44.78101539
      19   1         -90.37308076       -135.04911935         44.63742009
      20   1         -88.36156895       -134.91233926         44.49382478
      21   1         -86.35005715       -134.77555916         44.35022948
      22   1         -84.30569939       -134.68519507         44.22534216
      23   1         -82.26134164       -134.59483099         44.10045485
      24   1         -80.21698389       -134.50446690         43.97556754
      25   1         -78.21485021       -134.20768743         44.14200193
      26   1         -76.21271652       -133.91090796         44.30843632
      27   1         -74.21058284       -133.61412848         44.47487071
      28   1         -72.34781561       -133.17318252         44.72591529
      29   1         -70.48504837       -132.73223655         44.97695987
      30   1         -68.62228113       -132.29129059         45.22800445
      31   1         -66.16866339       -131.51365370         45.20670628
      32   1         -63.71504566       -130.73601681         45.18540812
      33   1         -61.54801283       -129.51510840         44.85584574
      34   1         -59.38098000       -128.29419998         44.52628335
      35   1          80.39142500         57.73833152        144.65022619
      36   1          78.48804832         59.36901691        144.47336084
      37   1          76.58467163         60.99970229        144.29649549
      38   1          75.07603321         63.16521706        144.34412055
      39   1          73.56739479         65.33073182        144.39174561
      40   1          72.85487138         67.81133637        144.63395197
      41   1          72.14234797         70.29194093        144.87615833
      42   1          72.10139471         72.70406386        144.98564276
      43   1          72.06044146         75.11618679        145.09512719
      44   1          72.06807112         77.44843155        145.01114539
      45   1          72.07570078         79.78067632        144.92716359
      46   1          71.37538386         81.95921797        144.74416534
      47   1          70.67506695         84.13775961        144.56116709
      48   1          69.01176821         86.10176336        144.16843453
      49   1          67.34846947         88.06576712        143.77570197
      50   1          65.30267434         89.88729402        143.24099698
      51   1          63.25687921         91.70882092        142.70629200
      52   1          61.23928090         93.10393650        142.43934516
      53   1          59.22168259         94.49905208        142.17239833
      54   1          57.11171393         95.19814301        142.10549293
      55   1          55.00174527         95.89723394        142.03858753
      56   1          52.89827116         96.18893065        142.45321641
      57   1          50.79479706         96.48062737        142.86784530
      58   1          49.08011219         96.86621973        144.14794085
      59   1          47.36542731         97.25181209        145.42803640
      60   1          45.76014138         97.82890723        147.20781591
      61   1          44.15485546         98.40600236        148.98759542
      62   1          42.11847591         99.00282762        150.58689641
      63   1          40.08209636         99.59965287        152.18619740
      64   1          37.69770036        100.28471197        153.44410868
      65   1          35.31330436        100.96977106        154.70201996
      66   1          33.36248252        101.76894081        156.56284190
      67   1          31.41166067        102.56811055        158.42366384
      68   1          30.26044581        103.29030243        160.93399249
      69   1          29.10923094        104.01249430        163.44432114
      70   1          28.07474624        104.67563245        165.96118761
      71   1          27.04026154        105.33877060        168.47805409
      72   1          26.13981315        106.09602849        170.79439208
      73   1          25.23936476        106.85328638        173.11073007
      74   1          24.31694107        107.52541401        174.94898178
      75   1          23.39451738        108.19754164        176.78723349
      76   1          21.73617397        108.77694149        178.52910107
      77   1          20.07783057        109.35634134        180.27096864
      78   1          18.93838926        109.72434773        181.88346522
      79   1          17.79894795        110.09235412        183.49596180
      80   1          16.65950664        110.46036051        185.10845838
      81   1          16.18527837        110.92876094        187.71763952
      82   1          15.71105009        111.39716138       -188.85710630
      83   1          16.34479653        112.35438469       -186.66119283
      84   1          16.97854298        113.31160799       -184.46527937
      85   1          17.72742369        114.79952760       -182.75547658
      86   1          18.47630439        116.28744720       -181.04567380
      87   1          19.08859305        117.41509838       -179.84983227
      88   1          19.70088171        118.54274955       -178.65399075
      89   1          20.31144125        119.17147001       -177.31604696
      90   1          20.92200078        119.80019047       -175.97810318
      91   1          18.16330317        -50.55009047        -61.57198964
      92   1          18.77781132        -50.89646941        -63.98114699
      93   1          19.39231947        -51.24284834        -66.39030434
      94   1          20.36301037        -51.60145840        -68.89943265
      95   1          21.33370128        -51.96006846        -71.40856096
      96   1          22.36409048        -52.22683995        -73.06133030
      97   1          23.39447969        -52.49361145        -74.71409964
      98   1          24.42486890        -52.76038294        -76.36686898
      99   1          25.92152334        -52.74733942        -78.58652567
     100   1          27.41817778        -52.73429590        -80.80618237
     101   1          27.78938156        -51.83054264        -82.80349267
     102   1          28.16058533        -50.92678939        -84.80080297
     103   1          28.60092742        -49.67297594        -86.56772185
     104   1          29.04126951        -48.41916250        -88.33464073
     105   1          30.63320528        -47.31639493        -89.33076800
     106   1          32.22514105        -46.21362736        -90.32689527
     107   1          33.77285486        -45.11567438        -91.60081880
     108   1          35.32056867        -44.01772141        -92.87474233
     109   1          36.18948519        -42.82032399        -94.97709900
     110   1          37.05840171        -41.62292657        -97.07945566
     111   1          38.16446456        -40.08231623        -98.52074914
     112   1          39.27052742        -38.54170589        -99.96204262
     113   1          41.23461396        -36.87660482       -100.41419026
     114   1          43.19870050        -35.21150376       -100.86633790
     115   1          45.33477944        -34.08701484       -100.71234165
     116   1          47.47085838        -32.96252593       -100.55834539
     117   1          49.45464098        -32.21246181       -100.19113768
     118   1          51.43842358        -31.46239768        -99.82392997
     119   1          53.64573466        -30.96606888        -99.49898241
     120   1          55.85304574        -30.46974009        -99.17403485
     121   1          58.34377155        -30.48519676        -99.17473440
     122   1          60.83449736        -30.50065343        -99.17543396
     123   1          63.30991070        -30.34806443       -100.02967815
     124   1          65.78532404        -30.19547543       -100.88392233
     125   1          67.76419417        -29.30667251       -102.20877580
     126   1          69.74306430        -28.41786959       -103.53362927
     127   1          71.19141598        -27.28335518       -105.12496015
     128   1          72.63976767        -26.14884076       -106.71629103
     129   1          73.96990858        -25.12009890       -108.53255638
     130   1          75.30004949        -24.09135704       -110.34882173
     131   1          76.69492403        -23.06679910       -112.15632233
     132   1          78.08979857        -22.04224117       -113.96382293
     133   1          79.49739935        -20.93313186       -115.87419606
     134   1          80.90500013        -19.82402255       -117.78456919
     135   1          82.44104458        -18.98213509       -119.75002480
     136   1          83.97708903        -18.14024764       -121.71548042
     137   1          85.86947635        -17.85163547       -123.21548613
     138   1          87.76186368        -17.56302331       -124.71549184
     139   1          89.82884790        -17.60105023       -125.55065199
     140   1          91.89583212        -17.63907715       -126.38581213
     141   1          93.94825502        -18.06623384       -126.92477950
     142   1          96.00067792        -18.49339054       -127.46374686
     143   1          98.06827070        -19.52176418       -127.69167822
     144   1         100.13586349        -20.55013782       -127.91960958
     145   1         102.19311630        -21.85704082       -128.22129103
     146   1         104.25036911        -23.16394383       -128.52297249
     147   1         106.23447535        -24.02310276       -129.41119287
     148   1         108.21858160        -24.88226170       -130.29941326
     149   1         109.82575317        -25.46358862       -131.92412604
     150   1         111.43292474        -26.04491555       -133.54883881
     151   1         112.38201441        -26.88463469       -135.64492198
     152   1         113.33110407        -27.72435383       -137.74100514
     153   1         113.84168100        -28.50501797       -139.37672584
     154   1         114.35225792        -29.28568210       -141.01244654
     155   1         115.59829168        -30.38781248       -143.21062501
     156   1         142.71833332        -46.99915000       -140.20983334
     157   1         144.46930744        -45.68175347       -138.46478382
     158   1         146.22028156        -44.36435694       -136.71973431
     159   1         148.31806561        -42.99127569       -135.42106543
     160   1         150.41584966        -41.61819444       -134.12239656
     161   1         152.49905003        -40.59781106       -132.95877905
     162   1         154.58225040        -39.57742767       -131.79516154
     163   1         156.77001826        -38.59266456       -130.78173270
     164   1         158.95778611        -37.60790145       -129.76830385
     165   1         161.39810673        -36.75874022       -129.17864777
     166   1         163.83842736        -35.90957898       -128.58899170
     167   1         166.16932367        -35.71065503       -129.02527759
     168   1         168.50021997        -35.51173107       -129.46156349
     169   1         170.74032387        -35.52145736       -130.72511851
     170   1         172.98042777        -35.53118366       -131.98867353
     171   1         175.31831742        -35.12088482       -133.20916214
     172   1         177.65620707        -34.71058598       -134.42965075
     173   1        -177.82175019        -34.03567011       -135.65758270
     174   1        -175.53525488        -33.36075425       -136.88551465
     175   1        -173.80886805        -32.72468680       -138.29458522
     176   1        -172.08248123        -32.08861935       -139.70365579
     177   1        -170.90187951        -31.41286300       -141.54646122
     178   1        -169.72127779        -30.73710665       -143.38926664
     179   1         -85.74709167        -97.80663059        119.21375000
     180   1         -84.19781999        -96.68567478        119.98969938
     181   1         -82.78296491        -95.32378162        120.55246554
     182   1         -81.35087002        -93.36273999        121.27713335
     183   1         173.21638889        -35.96842777        174.52450002
     184   1         173.14003997        -34.90135144        172.11319572
     185   1         173.06369106        -33.83427511        169.70189142
     186   1         173.36966486        -32.43978177        167.79871503
     187   1         173.67563865        -31.04528844        165.89553865
     188   1         174.85364268        -29.75452767        164.47660863
     189   1         176.03164671        -28.46376690        163.05767861
     190   1         178.28768800        -27.63341525        161.96598426
     191   1        -177.22072327        -26.80306360        160.87428992
     192   1        -174.78285208        -26.43398504        160.00059535
     193   1        -172.34498089        -26.06490648        159.12690078
     194   1        -170.11655648        -25.67310165        158.24887958
     195   1        -167.88813206        -25.28129682        157.37085839
     196   1        -165.67127789        -24.75543226        156.43709676
     197   1        -163.45442372        -24.22956771        155.50333514
     198   1        -161.53447525        -24.28404966        154.57535012
     199   1        -159.61452679        -24.33853162        153.64736510
     200   1        -157.78750148        -24.99232849        152.43876190
     201   1        -155.96047618        -25.64612537        151.23015870
     202   1        -167.59116667        -68.13056333         38.74372834
     203   1        -166.73117591        -68.02423836         41.15977880
     204   1        -165.87118514        -67.91791339         43.57582926
     205   1        -164.60416978        -67.89650179         46.08763912
     206   1        -163.33715443        -67.87509018         48.59944897
     207   1        -162.34724513        -67.50478313         50.34969300
     208   1        -161.35733582        -67.13447608         52.09993703
     209   1        -160.36742652        -66.76416903         53.85018106
     210   1        -159.40961853        -66.39818905         55.59745754
     211   1        -158.45181054        -66.03220908         57.34473401
     212   1        -157.49400255        -65.66622910         59.09201048
     213   1        -156.05034631        -65.66744627         61.50114746
     214   1        -154.60669006        -65.66866344         63.91028445
     215   1        -153.00865726        -65.74095817         66.11424176
     216   1        -151.41062446        -65.81325290         68.31819907
     217   1        -149.65057949        -65.59820285         70.33912673
     218   1        -147.89053453        -65.38315280         72.36005439
     219   1        -146.28720448        -64.65366802         74.32247789
     220   1        -144.68387443        -63.92418324         76.28490138
     221   1        -143.58573820        -62.70976717         78.41047665
     222   1        -142.48760196        -61.49535111         80.53605193
     223   1        -141.81420147        -60.22705207         82.77717574
     224   1        -141.14080097        -58.95875303         85.01829955
     225   1        -140.35408661        -57.70469940         87.23638778
     226   1        -139.56737224        -56.45064578         89.45447601
     227   1        -138.54505245        -54.90330660         91.51062016
     228   1        -137.52273267        -53.35596742         93.56676432
     229   1        -137.08731693        -51.66156911         95.25671997
     230   1        -136.65190120        -49.96717081         96.94667562
     231   1        -137.14487067        -48.47835879         98.46029281
     232   1        -137.63784014        -46.98954677         99.97391000
     233   1        -138.65904288        -46.05543151        102.17262050
     234   1        -139.68024562        -45.12131624        104.37133099
     235   1        -140.50170509        -45.00953254        106.35987362
     236   1        -141.32316457        -44.89774884        108.34841625
     237   1        -142.14462405        -44.78596514        110.33695888
     238   1        -142.89656376        -45.02848827        112.25889500
     239   1        -143.64850347        -45.27101139        114.18083111
     240   1        -144.40044318        -45.51353452        116.10276723
     241   1        -145.30460350        -46.18422027        118.45111798
     242   1        -146.20876381        -46.85490602        120.79946874
     243   1        -146.39799579        -47.95737233        122.84333197
     244   1        -146.58722776        -49.05983863        124.88719520
     245   1        -145.79313949        -50.19631576        126.27014000
     246   1        -144.99905121        -51.33279289        127.65308480
     247   1        -144.20496293        -52.46927002        129.03602960
     248   1         -48.13407335         41.34481736       -137.23442960
     249   1         -49.06283757         41.11420279       -135.41710801
     250   1         -49.99160178         40.88358821       -133.59978642
     251   1         -50.92036600         40.65297363       -131.78246483
     252   1         -52.17486820         39.66847838       -130.56388018
     253   1         -53.42937041         38.68398313       -129.34529553
     254   1         -54.68387261         37.69948788       -128.12671088
     255   1         -56.30794798         36.06772708       -126.97259276
     256   1         -57.93202335         34.43596629       -125.81847463
     257   1         -58.99036792         33.31904785       -124.69444418
     258   1         -60.04871250         32.20212941       -123.57041372
     259   1         -61.19398542         31.02803387       -122.46478185
     260   1         -62.33925833         29.85393834       -121.35914998
     261   1        -157.96398809         72.35658690       -178.88469047
     262   1        -156.38643330         73.92940378       -178.26685916
     263   1        -154.80887851         75.50222066       -177.64902786
     264   1        -152.57564281         75.82383614       -178.06663164
     265   1        -150.34240711         76.14545162       -178.48423543
     266   1        -147.81739817         76.46597929       -179.51702506
     267   1        -145.29238923         76.78650696       -180.54981468
     268   1        -142.93952726         77.47131140       -180.97560009
     269   1        -140.58666529         78.15611584       -181.40138550
     270   1        -138.47678710         78.05550956       -180.55105320
     271   1        -136.36690891         77.95490327       -179.70072090
     272   1        -134.33837261         76.78071321       -178.18849816
     273   1        -132.30983631         75.60652315       -176.67627542
     274   1        -130.80928063         74.59313187       -175.99960692
     275   1        -129.30872496         73.57974059       -175.32293842
     276   1        -127.80816929         72.56634932       -174.64626992
     277   1        -125.60775670         71.84964198       -174.47668998
     278   1        -123.40734411         71.13293465       -174.30711004
     279   1        -121.36551244         71.03050790       -174.36561165
     280   1        -119.32368077         70.92808114       -174.42411327
     281   1        -117.30511286         70.53680635       -174.28605141
     282   1        -115.28654496         70.14553155       -174.14798955
     283   1        -113.39086153         69.76971915       -174.50804605
     284   1        -111.49517811         69.39390675       -174.86810256
     285   1        -109.53896681         69.36817787       -176.25039626
     286   1        -107.58275551         69.34244898       -177.63268996
     287   1        -105.41133544         69.57913483       -178.82056187
     288   1        -103.23991538         69.81582068       -180.00843379
     289   1        -101.10769313         70.33469894       -180.79802206
     290   1         -98.97547087         70.85357721       -181.58761032
     291   1         -96.97839766         71.51370440       -182.39459550
     292   1         -94.98132444         72.17383159       -183.20158067
     293   1         -92.89947619         72.63410621       -183.36061426
     294   1         -90.81762793         73.09438084       -183.51964785
     295   1         -88.74975943         72.98211071       -183.50666640
     296   1         -86.68189093         72.86984058       -183.49368495
     297   1         -84.90864196         72.63162106       -184.10880584
     298   1         -83.13539299         72.39340153       -184.72392673
     299   1         -81.57658489         72.66883797       -186.20855562
     300   1         -80.01777679         72.94427440       -187.69318450
     301   1         173.21638889        -35.96842777        174.52450002
     302   1         173.87593054        -35.82161730        176.55680332
     303   1         174.53547218        -35.67480683        178.58910661
     304   1         175.19501383        -35.52799636        180.62140990
     305   1         175.66390993        -35.42042594        182.61173062
     306   1         176.13280604        -35.31285552        184.60205134
     307   1         176.60170215        -35.20528510        186.59237206
     308   1         176.98423284        -34.97992709        188.48133921
     309   1         177.36676353        -34.75456908       -188.81362061
     310   1         177.74929422        -34.52921107       -186.92465346
     311   1         178.22996342        -34.18333814       -185.10227179
     312   1         178.71063261        -33.83746522       -183.27989012
     313   1        -178.57315075        -33.49159229       -181.45750845
     314   1        -178.06471746        -33.24378989       -179.43959070
     315   1        -177.55628417        -32.99598749       -177.42167295
     316   1        -177.04785087        -32.74818508       -175.40375520
     317   1        -176.53379156        -32.54379558       -173.23481563
     318   1        -176.01973225        -32.33940607       -171.06587605
     319   1        -175.50567293        -32.13501656       -168.89693648
     320   1        -174.90665933        -31.87278698       -166.88084624
     321   1        -174.30764572        -31.61055740       -164.86475600
     322   1        -173.70863211        -31.34832783       -162.84866576
     323   1        -173.17027919        -31.10680058       -160.84255537
     324   1        -172.63192627        -30.86527334       -158.83644498
     325   1        -172.09357335        -30.62374609       -156.83033459
     326   1        -171.74029183        -30.45560547       -154.89685521
     327   1        -171.38701030        -30.28746484       -152.96337582
     328   1        -171.03372877        -30.11932422       -151.02989644
     329   1        -170.63588144        -30.15144176       -148.84436277
     330   1        -170.23803412        -30.18355930       -146.65882911
     331   1        -169.97965595        -30.46033297       -145.02404787
     332   1        -169.72127779        -30.73710665       -143.38926664
     333   1         -77.46058890         42.88517501       -171.79072225
     334   1         -77.11014011         44.89978795       -173.58173448
     335   1         -76.75969133         46.91440088       -175.37274671
     336   1         -76.88748396         49.33115658       -176.62562114
     337   1         -77.01527660         51.74791228       -177.87849557
     338   1         -77.15925114         54.34572746       -178.78982003
     339   1         -77.30322568         56.94354265       -179.70114449
     340   1         -77.37632372         58.71258286       -180.61807700
     341   1         -77.44942176         60.48162306       -181.53500951
     342   1         -77.52251980         62.25066327       -182.45194202
     343   1         -77.77538852         64.03551383       -183.47524905
     344   1         -78.02825724         65.82036438       -184.49855609
     345   1         -78.28112596         67.60521494       -185.52186312
     346   1         -78.86000957         69.38490143       -186.24563691
     347   1         -79.43889318         71.16458792       -186.96941071
     348   1         -80.01777679         72.94427440       -187.69318450
     349   1        -127.26066667        167.58294446        139.83288888
     350   1        -125.27011731        167.53943481        140.00856633
     351   1        -123.27956795        167.49592516        140.18424378
     352   1        -121.28901859        167.45241551        140.35992123
     353   1        -119.13097097        167.32187689        140.45381277
     354   1        -116.97292335        167.19133827        140.54770432
     355   1        -114.81487573        167.06079966        140.64159587
     356   1        -112.67445544        166.79448338        140.72511835
     357   1        -110.53403515        166.52816710        140.80864083
     358   1        -108.39361486        166.26185083        140.89216331
     359   1        -106.37509872        165.95442601        141.11441436
     360   1        -104.35658258        165.64700120        141.33666542
     361   1        -102.33806644        165.33957638        141.55891647
     362   1         -99.62213132        164.66262794        141.78874146
     363   1         -96.90619620        163.98567950        142.01856645
     364   1         -94.43480400        163.71366589        141.69487284
     365   1         -91.96341179        163.44165227        141.37117922
     366   1         -89.44573717        163.93543304        140.88663073
     367   1         -86.92806254        164.42921381        140.40208224
     368   1         -84.98530628        164.71007968        140.21094628
     369   1         -83.04255002        164.99094554        140.01981032
     370   1         -81.09979375        165.27181141        139.82867436
     371   1         -79.05204558        165.45777541        139.73653200
     372   1         -77.00429740        165.64373941        139.64438964
     373   1         -74.95654922        165.82970342        139.55224728
     374   1         -72.99089991        166.07859998        139.56384852
     375   1         -71.02525060        166.32749655        139.57544976
     376   1         -69.05960129        166.57639311        139.58705100
     377   1         -66.96322772        166.64196793        139.64648655
     378   1         -64.86685415        166.70754276        139.70592209
     379   1         -62.77048057        166.77311758        139.76535764
     380   1         -60.54206949        166.71639018        139.83389803
     381   1         -58.31365841        166.65966278        139.90243842
     382   1         -56.08524732        166.60293538        139.97097881
     383   1         -53.86952163        166.56361054        140.06643498
     384   1         -51.65379593        166.52428569        140.16189115
     385   1         -49.43807024        166.48496084        140.25734733
     386   1         -47.22671338        166.48951617        140.25614655
     387   1         -45.01535652        166.49407150        140.25494577
     388   1         -42.80399966        166.49862683        140.25374499
     389   1         -40.05533607        166.70068998        140.04858162
     390   1         -37.30667248        166.90275314        139.84341825
     391   1         -35.47076921        167.29291043        139.65554219
     392   1         -33.63486593        167.68306772        139.46766613
     393   1         -31.72800886        168.25259934        139.24054733
     394   1         -29.82115179        168.82213096        139.01342854
     395   1         -15.63416591          7.91688776        112.26808731
     396   1         -16.24298696          9.71263557        114.02081550
     397   1         -16.85180801         11.50838338        115.77354368
     398   1         -17.51511764         12.04939012        118.33322488
     399   1         -18.17842727         12.59039685        120.89290609
     400   1         -18.67618669         12.27819913        123.58557536
     401   1         -19.17394612         11.96600141        126.27824463
     402   1         -19.30290755         12.59735703        128.38605626
     403   1         -19.43186897         13.22871265        130.49386789