 dislocation atom positions
        2416 atoms
 1 atom types
 0.0 0.0 xlo xhi
 0.0 0.0 ylo yhi
 0.0 0.0 zlo zhi

Atoms

       1   1        -132.88616667       -129.20341664         48.06365417
       2   1        -128.82571789       -131.69523464         48.78064438
       3   1        -124.08142863       -133.29930805         48.22982496
       4   1        -118.98652590       -134.70565419         47.47836380
       5   1        -113.76787127       -136.22559346         46.77562692
       6   1        -108.47826669       -137.73380626         45.35137362
       7   1        -103.43724121       -138.10673402         44.09523253
       8   1         -98.16321276       -136.62460886         44.34048304
       9   1         -92.38459257       -135.18589945         44.78101539
      10   1         -86.35005715       -134.77555916         44.35022948
      11   1         -80.21698389       -134.50446690         43.97556754
      12   1         -74.21058284       -133.61412848         44.47487071
      13   1         -68.62228113       -132.29129059         45.22800445
      14   1         -63.71504566       -130.73601681         45.18540812
      15   1         -59.38098000       -128.29419998         44.52628335
      16   1          80.39142500         57.73833152        144.65022619
      17   1          76.58467163         60.99970229        144.29649549
      18   1          73.56739479         65.33073182        144.39174561
      19   1          72.14234797         70.29194093        144.87615833
      20   1          72.06044146         75.11618679        145.09512719
      21   1          72.07570078         79.78067632        144.92716359
      22   1          70.67506695         84.13775961        144.56116709
      23   1          67.34846947         88.06576712        143.77570197
      24   1          63.25687921         91.70882092        142.70629200
      25   1          59.22168259         94.49905208        142.17239833
      26   1          55.00174527         95.89723394        142.03858753
      27   1          50.79479706         96.48062737        142.86784530
      28   1          47.36542731         97.25181209        145.42803640
      29   1          44.15485546         98.40600236        148.98759542
      30   1          40.08209636         99.59965287        152.18619740
      31   1          35.31330436        100.96977106        154.70201996
      32   1          31.41166067        102.56811055        158.42366384
      33   1          29.10923094        104.01249430        163.44432114
      34   1          27.04026154        105.33877060        168.47805409
      35   1          25.23936476        106.85328638        173.11073007
      36   1          23.39451738        108.19754164        176.78723349
      37   1          20.07783057        109.35634134        180.27096864
      38   1          16.65950664        110.46036051        185.10845838
      39   1          15.71105009        111.39716138       -188.85710630
      40   1          16.97854298        113.31160799       -184.46527937
      41   1          18.47630439        116.28744720       -181.04567380
      42   1          19.70088171        118.54274955       -178.65399075
      43   1          20.92200078        119.80019047       -175.97810318
      44   1          18.16330317        -50.55009047        -61.57198964
      45   1          19.39231947        -51.24284834        -66.39030434
      46   1          21.33370128        -51.96006846        -71.40856096
      47   1          24.42486890        -52.76038294        -76.36686898
      48   1          27.41817778        -52.73429590        -80.80618237
      49   1          28.16058533        -50.92678939        -84.80080297
      50   1          29.04126951        -48.41916250        -88.33464073
      51   1          32.22514105        -46.21362736        -90.32689527
      52   1          35.32056867        -44.01772141        -92.87474233
      53   1          37.05840171        -41.62292657        -97.07945566
      54   1          39.27052742        -38.54170589        -99.96204262
      55   1          43.19870050        -35.21150376       -100.86633790
      56   1          47.47085838        -32.96252593       -100.55834539
      57   1          51.43842358        -31.46239768        -99.82392997
      58   1          55.85304574        -30.46974009        -99.17403485
      59   1          60.83449736        -30.50065343        -99.17543396
      60   1          65.78532404        -30.19547543       -100.88392233
      61   1          69.74306430        -28.41786959       -103.53362927
      62   1          72.63976767        -26.14884076       -106.71629103
      63   1          75.30004949        -24.09135704       -110.34882173
      64   1          78.08979857        -22.04224117       -113.96382293
      65   1          80.90500013        -19.82402255       -117.78456919
      66   1          83.97708903        -18.14024764       -121.71548042
      67   1          87.76186368        -17.56302331       -124.71549184
      68   1          91.89583212        -17.63907715       -126.38581213
      69   1          96.00067792        -18.49339054       -127.46374686
      70   1         100.13586349        -20.55013782       -127.91960958
      71   1         104.25036911        -23.16394383       -128.52297249
      72   1         108.21858160        -24.88226170       -130.29941326
      73   1         111.43292474        -26.04491555       -133.54883881
      74   1         113.33110407        -27.72435383       -137.74100514
      75   1         114.35225792        -29.28568210       -141.01244654
      76   1         115.59829168        -30.38781248       -143.21062501
      77   1         142.71833332        -46.99915000       -140.20983334
      78   1         146.22028156        -44.36435694       -136.71973431
      79   1         150.41584966        -41.61819444       -134.12239656
      80   1         154.58225040        -39.57742767       -131.79516154
      81   1         158.95778611        -37.60790145       -129.76830385
      82   1         163.83842736        -35.90957898       -128.58899170
      83   1         168.50021997        -35.51173107       -129.46156349
      84   1         172.98042777        -35.53118366       -131.98867353
      85   1         177.65620707        -34.71058598       -134.42965075
      86   1        -175.53525488        -33.36075425       -136.88551465
      87   1        -172.08248123        -32.08861935       -139.70365579
      88   1        -169.72127779        -30.73710665       -143.38926664
      89   1         -85.74709167        -97.80663059        119.21375000
      90   1         -84.19781999        -96.68567478        119.98969938
      91   1         -82.78296491        -95.32378162        120.55246554
      92   1         -81.35087002        -93.36273999        121.27713335
      93   1         173.21638889        -35.96842777        174.52450002
      94   1         173.06369106        -33.83427511        169.70189142
      95   1         173.67563865        -31.04528844        165.89553865
      96   1         176.03164671        -28.46376690        163.05767861
      97   1        -177.22072327        -26.80306360        160.87428992
      98   1        -172.34498089        -26.06490648        159.12690078
      99   1        -167.88813206        -25.28129682        157.37085839
     100   1        -163.45442372        -24.22956771        155.50333514
     101   1        -159.61452679        -24.33853162        153.64736510
     102   1        -155.96047618        -25.64612537        151.23015870
     103   1        -167.59116667        -68.13056333         38.74372834
     104   1        -165.87118514        -67.91791339         43.57582926
     105   1        -163.33715443        -67.87509018         48.59944897
     106   1        -160.36742652        -66.76416903         53.85018106
     107   1        -157.49400255        -65.66622910         59.09201048
     108   1        -154.60669006        -65.66866344         63.91028445
     109   1        -151.41062446        -65.81325290         68.31819907
     110   1        -147.89053453        -65.38315280         72.36005439
     111   1        -144.68387443        -63.92418324         76.28490138
     112   1        -142.48760196        -61.49535111         80.53605193
     113   1        -141.14080097        -58.95875303         85.01829955
     114   1        -139.56737224        -56.45064578         89.45447601
     115   1        -137.52273267        -53.35596742         93.56676432
     116   1        -136.65190120        -49.96717081         96.94667562
     117   1        -137.63784014        -46.98954677         99.97391000
     118   1        -139.68024562        -45.12131624        104.37133099
     119   1        -142.14462405        -44.78596514        110.33695888
     120   1        -144.40044318        -45.51353452        116.10276723
     121   1        -146.20876381        -46.85490602        120.79946874
     122   1        -146.58722776        -49.05983863        124.88719520
     123   1        -144.20496293        -52.46927002        129.03602960
     124   1         -48.13407335         41.34481736       -137.23442960
     125   1         -50.92036600         40.65297363       -131.78246483
     126   1         -54.68387261         37.69948788       -128.12671088
     127   1         -57.93202335         34.43596629       -125.81847463
     128   1         -60.04871250         32.20212941       -123.57041372
     129   1         -62.33925833         29.85393834       -121.35914998
     130   1        -157.96398809         72.35658690       -178.88469047
     131   1        -154.80887851         75.50222066       -177.64902786
     132   1        -150.34240711         76.14545162       -178.48423543
     133   1        -145.29238923         76.78650696       -180.54981468
     134   1        -140.58666529         78.15611584       -181.40138550
     135   1        -136.36690891         77.95490327       -179.70072090
     136   1        -132.30983631         75.60652315       -176.67627542
     137   1        -127.80816929         72.56634932       -174.64626992
     138   1        -123.40734411         71.13293465       -174.30711004
     139   1        -119.32368077         70.92808114       -174.42411327
     140   1        -115.28654496         70.14553155       -174.14798955
     141   1        -111.49517811         69.39390675       -174.86810256
     142   1        -107.58275551         69.34244898       -177.63268996
     143   1        -103.23991538         69.81582068       -180.00843379
     144   1         -98.97547087         70.85357721       -181.58761032
     145   1         -94.98132444         72.17383159       -183.20158067
     146   1         -90.81762793         73.09438084       -183.51964785
     147   1         -86.68189093         72.86984058       -183.49368495
     148   1         -83.13539299         72.39340153       -184.72392673
     149   1         -80.01777679         72.94427440       -187.69318450
     150   1         173.21638889        -35.96842777        174.52450002
     151   1         175.19501383        -35.52799636        180.62140990
     152   1         176.60170215        -35.20528510        186.59237206
     153   1         177.74929422        -34.52921107       -186.92465346
     154   1        -178.57315075        -33.49159229       -181.45750845
     155   1        -177.04785087        -32.74818508       -175.40375520
     156   1        -175.50567293        -32.13501656       -168.89693648
     157   1        -173.70863211        -31.34832783       -162.84866576
     158   1        -172.09357335        -30.62374609       -156.83033459
     159   1        -171.03372877        -30.11932422       -151.02989644
     160   1        -170.23803412        -30.18355930       -146.65882911
     161   1        -169.72127779        -30.73710665       -143.38926664
     162   1         -77.46058890         42.88517501       -171.79072225
     163   1         -76.75969133         46.91440088       -175.37274671
     164   1         -77.01527660         51.74791228       -177.87849557
     165   1         -77.30322568         56.94354265       -179.70114449
     166   1         -77.52251980         62.25066327       -182.45194202
     167   1         -78.28112596         67.60521494       -185.52186312
     168   1         -80.01777679         72.94427440       -187.69318450
     169   1        -127.26066667        167.58294446        139.83288888
     170   1        -121.28901859        167.45241551        140.35992123
     171   1        -114.81487573        167.06079966        140.64159587
     172   1        -108.39361486        166.26185083        140.89216331
     173   1        -102.33806644        165.33957638        141.55891647
     174   1         -96.90619620        163.98567950        142.01856645
     175   1         -91.96341179        163.44165227        141.37117922
     176   1         -86.92806254        164.42921381        140.40208224
     177   1         -81.09979375        165.27181141        139.82867436
     178   1         -74.95654922        165.82970342        139.55224728
     179   1         -69.05960129        166.57639311        139.58705100
     180   1         -62.77048057        166.77311758        139.76535764
     181   1         -56.08524732        166.60293538        139.97097881
     182   1         -49.43807024        166.48496084        140.25734733
     183   1         -42.80399966        166.49862683        140.25374499
     184   1         -37.30667248        166.90275314        139.84341825
     185   1         -33.63486593        167.68306772        139.46766613
     186   1         -29.82115179        168.82213096        139.01342854
     187   1         -15.63416591          7.91688776        112.26808731
     188   1         -16.85180801         11.50838338        115.77354368
     189   1         -18.17842727         12.59039685        120.89290609
     190   1         -19.17394612         11.96600141        126.27824463
     191   1         -19.43186897         13.22871265        130.49386789
     192   1         -18.50039856         16.05375045        134.43537610
     193   1         -17.45157489         18.04465455        139.05839475
     194   1         -17.56100866         19.08564198        144.30633280
     195   1         -18.51974955         19.91634237        149.71056140
     196   1         -19.43668876         21.00005057        154.87280864
     197   1         -20.19091355         21.42887858        160.10352027
     198   1         -20.33804288         20.43718865        165.23777907
     199   1         -19.92251600         18.74223438        170.21034542
     200   1         -19.14845274         17.35188381        175.12818006
     201   1         -18.53753170         15.63783875        179.20108046
     202   1         -19.42801668         12.19295999        182.40175001
     203   1        -110.95135150         37.49025456        158.26664242
     204   1        -109.36607091         41.14312886        162.10246014
     205   1        -107.36512261         44.60116538        165.89664818
     206   1        -106.03385945         46.93832802        169.68995609
     207   1        -104.67755950         48.54399085        173.42689916
     208   1        -101.30069534         50.68041143        176.24702643
     209   1         -97.11067830         53.42903816        176.78613538
     210   1         -93.27574676         56.30642375        176.23142903
     211   1         -89.23454624         58.99107097        175.96892388
     212   1         -85.85977558         61.84983998        175.07625767
     213   1         -83.35850238         65.02573240        173.47005478
     214   1         -80.68350330         68.37705335        172.13605224
     215   1         -77.87964835         71.70321527        171.63305644
     216   1         -75.15634142         74.49784842        172.66932097
     217   1         -73.04160001         76.79357461        176.06653167
     218   1         -72.91051557         78.49485651        181.02623166
     219   1         -75.25751108         79.78905556        186.43665856
     220   1          -1.91976965        158.81186310        181.71578570
     221   1           2.79114982        156.86815287        182.94579630
     222   1           8.22260304        155.42971403        183.52526710
     223   1          13.31947692        153.47442221        183.64054661
     224   1          18.45926020        150.77866637        184.69879399
     225   1          23.67755435        148.07268377        186.76180767
     226   1          27.79963396        145.86561752        188.65300769
     227   1          31.36348867        142.62302223       -189.07818786
     228   1          34.95985780        138.14788047       -186.16904049
     229   1          37.88522081        135.76767715       -181.39385125
     230   1          40.32827683        135.68595852       -177.49404909
     231   1          42.44347727        135.15043715       -175.39914569
     232   1          44.17782330        133.22973331       -173.67638892
     233   1          21.54169445         52.86215555        -55.10669331
     234   1          18.87484912         52.00623699        -50.34354705
     235   1          16.30111240         50.09224087        -46.02167928
     236   1          14.00075413         47.62928045        -41.53036229
     237   1          11.49059000         45.69652271        -37.13033750
     238   1           9.97652141         44.75809017        -32.66509208
     239   1          10.80813338         44.51166341        -27.39407754
     240   1          11.92324628         45.38562875        -22.33674825
     241   1          11.23898681         48.18682513        -19.20763537
     242   1           8.67521787         51.73552792        -18.30316817
     243   1           4.57262863         54.34123261        -18.77786702
     244   1          -0.14746305         55.87292951        -19.09403925
     245   1          -4.72850683         57.08716794        -18.49907980
     246   1          -9.05963563         58.52249266        -17.67540075
     247   1         -13.16694699         59.83358236        -16.94293602
     248   1         -17.30850553         60.17562778        -16.22286666
     249   1          72.49092750         -8.52841174         74.35888376
     250   1          77.18675853         -6.70792425         72.57263295
     251   1          81.42265369         -4.64057354         71.36534510
     252   1          85.63166559         -1.97009406         70.87912772
     253   1          89.63678956          1.34547369         71.02031376
     254   1          92.69454584          4.35415332         72.78237039
     255   1          95.53465063          6.74787493         75.02017262
     256   1          99.41482154          9.18954481         74.53916300
     257   1         103.68775514         11.54281963         72.53450249
     258   1         107.79532087         14.08823917         71.41119898
     259   1         112.08868157         17.06430961         71.14083379
     260   1         116.57913273         18.96428436         71.64509712
     261   1         121.16967819         19.19376017         73.29591649
     262   1         125.79254166         19.68033308         75.61770156
     263   1         130.31674286         21.58193270         77.22155158
     264   1         135.02319013         23.78630702         77.48076392
     265   1         140.31960725         25.79182725         77.89339671
     266   1         145.99776371         27.20874540         79.16061771
     267   1         151.54667122         27.27014033         80.50803903
     268   1         156.62950001         26.77908331         82.14246669
     269   1          20.92200078        119.80019047       -175.97810318
     270   1          25.20251149        123.14073673       -176.89382741
     271   1          29.51349996        124.91492685       -177.73110181
     272   1          34.49622960        126.25000266       -177.54895769
     273   1          39.81888765        127.66611429       -176.71863014
     274   1          43.27629613        129.65720100       -175.61394762
     275   1          44.17782330        133.22973331       -173.67638892
     276   1          21.54169445         52.86215555        -55.10669331
     277   1          22.19571570         54.78910236        -60.11300032
     278   1          22.90977708         58.28210641        -63.92913269
     279   1          23.47760537         62.44969315        -66.44539819
     280   1          24.99304770         66.16559703        -67.92364878
     281   1          28.26076137         69.36357592        -69.21386859
     282   1          32.85028620         71.82599534        -70.32020620
     283   1          37.86087640         73.01372775        -70.46124620
     284   1          42.58109735         73.86156671        -70.77655643
     285   1          46.35791459         76.59154756        -71.69966987
     286   1          48.61129957         81.14779958        -72.07868290
     287   1          50.47983428         85.61167758        -72.21834997
     288   1          53.04394274         89.70807592        -72.55791038
     289   1          55.04714107         93.95899649        -72.27437734
     290   1          55.23018973         98.26488157        -71.01450166
     291   1          55.32733660        103.24024710        -69.45322207
     292   1          56.69532584        107.57060948        -69.29035262
     293   1          59.02124659        108.80147624        -69.94436316
     294   1          62.85767040        107.31014107        -68.96625391
     295   1          67.67875298        104.84103376        -67.22279759
     296   1          72.19008479        102.49516604        -65.91305643
     297   1          76.14772114         99.82772933        -65.64774784
     298   1          80.00073071         98.00753404        -66.70620308
     299   1          83.99204796         97.86260210        -67.23640378
     300   1          88.33276426         96.96450785        -67.71955911
     301   1          92.77535081         95.71236379        -69.50374701
     302   1          96.53953136         95.02866957        -71.00488922
     303   1         100.30731016         94.37471791        -72.69808360
     304   1         103.65454340         96.13069148        -76.09240267
     305   1         104.57581194         99.87001543        -79.05625764
     306   1         102.91860530        103.33333230        -79.58270430
     307   1         101.76705093        106.88665994        -79.75222760
     308   1         103.13253208        110.20981477        -81.68046079
     309   1         105.69366271        112.65886334        -84.36454118
     310   1         109.15236065        113.12703105        -86.84857815
     311   1         113.41943123        112.13725649        -89.48169901
     312   1         117.82878110        110.84903907        -91.87550646
     313   1         120.79261522        108.83901762        -93.49393337
     314   1         121.97729879        107.55407514        -95.27578388
     315   1         123.80610661        107.90240166        -97.87210978
     316   1         126.20425216        109.42333145       -101.08170414
     317   1         127.46466702        111.79478181       -104.72318272
     318   1         127.36688370        114.81097097       -108.40842463
     319   1         126.60051968        118.73019927       -111.64856000
     320   1         125.03094303        123.26555582       -114.54142357
     321   1         121.64661803        128.36821561       -117.60644641
     322   1         117.30898466        133.43587695       -120.50956339
     323   1         113.82090300        137.08319351       -122.89608284
     324   1         111.19729461        140.23029816       -125.89585898
     325   1         108.01189036        144.05444570       -129.62825582
     326   1         103.90221579        146.52384743       -132.86205552
     327   1         100.05683795        147.36244803       -135.47989045
     328   1          97.43311340        149.07411266       -138.04087614
     329   1          95.80678891        151.85983331       -140.86950000
     330   1          39.03181429        -42.36683415        -45.82384997
     331   1          40.43556524        -38.02619727        -48.53286191
     332   1          42.36257487        -33.94467919        -51.22127269
     333   1          44.40412838        -30.64165877        -54.09676576
     334   1          47.20200433        -28.23712993        -56.96310039
     335   1          51.49797723        -26.85416156        -59.06238735
     336   1          56.22051244        -26.20510572        -59.91824512
     337   1          60.96392700        -26.87707953        -59.83389701
     338   1          66.14939412        -29.57528819        -58.68318161
     339   1          70.75401671        -33.28847430        -56.52800815
     340   1          73.50209385        -36.97093146        -53.74534136
     341   1          74.21223811        -40.57644153        -50.25741993
     342   1          74.03084424        -43.52268099        -46.32125110
     343   1          74.14173206        -45.66719952        -42.19038845
     344   1          72.82153671        -47.40118482        -37.68455473
     345   1          69.14349858        -48.10144208        -32.93949838
     346   1          64.24969877        -47.73657110        -29.71041292
     347   1          58.84783004        -47.33710706        -29.06762602
     348   1          54.00258832        -47.07293150        -28.67117903
     349   1          50.27836054        -45.80741320        -27.69647316
     350   1          47.50327245        -43.60626580        -27.27217782
     351   1          45.18160002        -41.92275555        -26.12783888
     352   1         146.59976667        -71.54811666        -48.24387557
     353   1         151.29485559        -69.44838271        -47.62365118
     354   1         156.44954649        -67.90347940        -47.71835323
     355   1         161.66748742        -66.72333749        -48.52829435
     356   1         167.00716541        -65.82562373        -49.97166910
     357   1         172.06240703        -64.81412645        -51.66083923
     358   1         176.92922327        -64.11286296        -53.73478037
     359   1        -175.62466407        -63.95747299        -56.80640572
     360   1        -170.36091094        -62.73812928        -58.68698098
     361   1        -165.06819834        -59.85034481        -57.49758554
     362   1        -159.90039090        -57.35999212        -55.25286508
     363   1        -155.18461238        -55.90285126        -53.10422829
     364   1        -150.44462281        -54.08305253        -51.48087197
     365   1        -145.52114802        -52.18497967        -51.43617942
     366   1        -140.81086237        -50.35800928        -52.02001382
     367   1        -136.17637773        -47.72986585        -51.53836427
     368   1        -131.43229827        -45.17948529        -51.26264790
     369   1        -126.50704111        -44.19090826        -53.52333017
     370   1        -121.41894901        -44.43658988        -57.90354634
     371   1        -117.14712129        -44.52715066        -61.93267313
     372   1        -113.55839238        -43.00005838        -63.47909438
     373   1        -109.50861722        -40.24097467        -62.54824610
     374   1        -105.84742450        -37.83922516        -60.73652514
     375   1        -102.31031834        -35.60637714        -59.51119552
     376   1         -97.56237006        -32.83538472        -58.20445114
     377   1         -92.54484319        -29.68066980        -56.27295694
     378   1         -87.72509508        -26.50619002        -54.90145589
     379   1         -82.53925002        -23.34172963        -54.58742178
     380   1         132.57055953        -61.14663870        -33.65541009
     381   1         132.10104720        -56.49700041        -34.66434959
     382   1         130.33835681        -52.13050198        -34.33658775
     383   1         128.18619874        -48.25674944        -32.71239593
     384   1         125.57784782        -44.44053018        -31.96487329
     385   1         122.39619953        -40.65959226        -32.17682031
     386   1         119.58171374        -36.89338650        -32.81412128
     387   1         117.57427251        -33.60137606        -34.87900402
     388   1         115.45455892        -31.42342800        -38.02164053
     389   1         112.56861600        -28.90158955        -41.15565487
     390   1         109.41584739        -24.34079160        -44.11935153
     391   1         106.09499993        -19.05315689        -47.78990801
     392   1         103.22226428        -14.87258544        -51.08800195
     393   1         100.97411704        -11.00508279        -52.82181980
     394   1          98.64597097         -7.22756221        -54.70883892
     395   1          96.36130823         -4.81758689        -57.40124388
     396   1          94.10902178         -1.73067755        -59.77606441
     397   1          92.60173068          2.41251391        -62.07089366
     398   1          91.57817035          4.60835740        -65.87438572
     399   1          89.66394861          6.06703324        -69.66565049
     400   1          87.13495809          9.30817485        -70.97422889
     401   1          84.22065080         13.97877092        -71.50986992
     402   1          80.91116049         18.76377463        -72.91787708
     403   1          76.95203824         22.17775376        -72.90942831