ITEM: TIMESTEP
399
ITEM: NUMBER OF ATOMS
832
ITEM: BOX BOUNDS pp pp pp
-178.8822262831 178.8822262831
-180.4818967399 180.4818967399
-189.5919634842 189.5919634842
ITEM: ATOMS id type x y z Occupancy
7232 1 -25.7874 -36.7848 -188.954 2
131818 1 -138.028 -58.3826 -142.502 2
133601 1 -59.3452 -22.2442 -142.425 0
134553 1 -79.6714 -3.77242 -142.396 0
142525 1 -101.373 -23.9843 -140.212 0
161444 1 -95.071 -5.14783 -132.229 0
170597 1 -95.9313 -3.05095 -131.131 0
212036 1 -79.5919 -71.2479 -112.527 0
212177 1 -81.1735 -69.215 -113.775 0
229672 1 -84.9271 -79.0887 -105.563 0
238598 1 -104.027 -78.7065 -103.882 0
247738 1 -91.6582 -72.8358 -100.04 0
256251 1 -81.1898 -85.0778 -97.1594 0
256565 1 -89.403 -78.8619 -96.3606 0
256708 1 -90.0794 -74.8609 -98.7858 0
256716 1 -85.9584 -72.9105 -97.5128 0
256889 1 -87.537 -70.8845 -98.7681 0
257035 1 -85.8959 -68.8858 -97.5821 0
265535 1 -79.5846 -76.9894 -92.5541 0
274493 1 -81.327 -76.9097 -90.2695 0
274495 1 -78.8475 -76.9635 -90.1882 0
283108 1 -96.4411 -82.6042 -87.196 0
283438 1 -83.0706 -76.8295 -87.9862 0
4206428 1 -80.5911 -76.8813 -87.9028 0
283580 1 -96.3069 -74.5537 -87.3198 0
283587 1 -83.9109 -74.7776 -86.8806 0
4206430 1 -81.4316 -74.8287 -86.797 0
283591 1 -77.2084 -74.9675 -89.0026 0
283593 1 -78.0492 -72.9143 -87.8979 0
283594 1 -79.6877 -74.9116 -89.0819 0
283595 1 -78.9524 -74.8826 -86.7155 0
283598 1 -75.5702 -72.9727 -87.8211 0
283771 1 -76.4117 -70.9182 -86.7181 0
292419 1 -84.083 -76.7152 -83.3366 0
292579 1 -85.6565 -74.6962 -84.5994 0
4206429 1 -83.1772 -74.7452 -84.5137 0
292582 1 -80.6978 -74.7969 -84.4298 0
4206431 1 -79.7935 -72.8287 -85.6112 0
4206432 1 -77.3145 -72.885 -85.532 0
292724 1 -99.7305 -70.3833 -82.8409 0
292740 1 -84.0185 -72.6912 -83.4099 0
4206434 1 -81.5394 -72.7422 -83.326 0
292744 1 -79.0603 -72.7961 -83.2443 0
4206433 1 -78.1564 -70.8296 -84.4293 0
292745 1 -75.6777 -70.8887 -84.3532 0
292889 1 -78.9987 -68.7733 -83.3277 0
292892 1 -74.7752 -68.9236 -85.5434 0
292893 1 -76.5204 -68.8318 -83.2522 0
301123 1 -22.121 -82.4156 -81.3979 0
301715 1 -83.2873 -72.655 -81.0427 0
301716 1 -81.6509 -70.6491 -79.8564 0
301718 1 -79.9027 -70.7398 -82.1419 0
4206435 1 -82.3814 -70.6866 -82.2234 0
301862 1 -80.7454 -68.6826 -81.0404 0
301866 1 -78.267 -68.7384 -80.962 0
309901 1 -73.7424 -86.862 -76.9335 0
311140 1 -84.8438 -60.4903 -79.0047 0
318868 1 -49.7718 -85.7042 -75.1672 0
319162 1 -73.7893 -80.7432 -73.5192 0
319927 1 -97.478 -66.2346 -75.8189 0
325866 1 -157.317 -123.82 -71.3759 2
327843 1 -78.1833 -88.6251 -71.1851 0
328010 1 -42.4244 -83.9158 -71.5113 0
328298 1 -72.1506 -78.7433 -72.3302 0
337155 1 -62.3948 -80.9745 -68.4518 0
337176 1 -42.5266 -81.8817 -68.0432 0
337187 1 -34.1669 -80.0586 -68.9754 0
345161 1 -34.4878 -98.2977 -65.3623 0
354468 1 -32.0805 -92.2718 -61.8247 0
354942 1 -32.0107 -84.1433 -61.8626 0
355120 1 -33.5941 -82.0786 -63.0955 0
363783 1 -41.2344 -88.031 -59.8018 0
372116 1 -57.0154 -100.309 -55.8502 0
381290 1 -48.1089 -96.2973 -50.7757 0
408083 1 -34.4828 -98.5999 -42.0631 0
408263 1 -36.067 -96.5576 -43.2949 0
4206529 1 -109.785 -154.05 -31.0454 0
4207469 1 -112.863 -149.961 -33.2092 0
4207472 1 -111.262 -151.984 -31.9909 0
435702 1 -88.2261 -87.484 -31.8629 0
444659 1 -89.9415 -87.3912 -29.6339 0
445023 1 -0.294701 -81.0128 -30.4104 0
446704 1 -103.012 -44.7351 -29.7485 2
451686 1 -0.608804 -127.281 -26.6643 2
451807 1 -1.46488 -125.255 -25.5412 2
463202 1 -4.87292 -76.9986 -21.1605 0
463365 1 -3.99506 -75.0009 -22.3046 0
472348 1 -3.27616 -75.0047 -19.943 0
480304 1 -77.9978 -94.7254 -15.2371 0
480308 1 -75.511 -94.7116 -15.2142 0
489251 1 -77.2568 -94.7296 -12.9073 0
525405 1 -9.16098 -91.0354 0.961514 2
525406 1 -8.28795 -89.0289 -0.186148 2
536298 1 -11.0936 -50.7617 3.12469 2
536301 1 -7.73771 -52.8031 2.0735 2
545289 1 -5.42616 -50.7733 5.62998 2
545471 1 -8.77802 -48.7311 6.68054 2
587773 1 -83.838 -99.5703 22.0089 2
605603 1 -72.4734 -101.464 30.5382 2
605606 1 -69.995 -101.437 30.6164 2
605607 1 -67.5172 -101.405 30.6977 2
614550 1 -71.7063 -101.437 32.8989 2
614552 1 -69.229 -101.411 32.9761 2
616286 1 -65.877 -66.8713 31.7273 0
624268 1 -84.1721 -87.3023 35.9801 0
624715 1 -71.7911 -79.058 36.2853 0
633626 1 -73.5036 -79.061 38.5658 0
641977 1 -76.062 -89.1959 42.0534 0
650994 1 -77.7683 -89.1859 44.3447 0
651000 1 -76.1446 -91.1865 45.5728 0
651164 1 -76.1504 -87.1345 45.5443 0
651802 1 -81.1041 -75.0258 45.3353 0
659239 1 -61.3499 -105.224 49.6145 0
659569 1 -50.612 -99.0946 48.7146 0
660013 1 -80.3222 -91.1893 47.8051 0
660824 1 -78.7211 -72.9456 48.8926 0
664283 1 -42.4766 -3.86048 47.405 2
672214 1 -2.17181 -28.1111 51.0306 0
672989 1 -30.2449 -9.89369 51.2954 2
672990 1 -31.1018 -11.9177 52.4363 2
673469 1 -42.6003 -1.79754 50.9089 2
678656 1 -50.8607 -78.7996 55.565 0
690247 1 -3.25839 -26.0235 59.1376 0
690416 1 -4.87267 -24.0096 57.9245 0
690541 1 -9.82224 -19.9696 57.7672 0
690548 1 -3.26704 -21.9707 59.1443 0
690746 1 -8.2171 -17.9307 58.9879 0
699257 1 -4.97773 -26.0141 61.4069 0
699419 1 -4.1225 -23.992 60.2756 0
699420 1 -3.37219 -23.9747 62.6269 0
699422 1 -1.65271 -23.9845 60.3571 0
699766 1 -1.67228 -15.8787 60.3743 0
705155 1 -87.3279 -86.9774 63.9683 0
705463 1 -73.382 -80.8369 65.4528 0
705679 1 -25.5733 -78.6433 65.5907 2
705930 1 -75.0145 -70.7432 64.1734 0
706932 1 -41.3431 -52.4015 66.1997 2
708540 1 -13.361 -21.9824 65.7917 0
709050 1 -10.0644 -11.8264 64.7629 0
714479 1 -82.5015 -80.849 67.5412 0
715794 1 -42.1988 -54.4192 67.3498 2
715917 1 -38.1228 -52.3804 68.6181 2
716866 1 -72.6785 -32.27 67.5681 0
717023 1 -71.0732 -30.2321 68.7777 0
717548 1 -9.28682 -19.9294 67.0933 0
717755 1 -3.61349 -15.831 69.6271 0
724825 1 -38.9788 -54.3971 69.7679 2
725885 1 -82.65 -34.3104 70.7677 0
725886 1 -81.0452 -32.2723 71.9775 0
725890 1 -79.3274 -32.2835 69.6942 0
726767 1 -5.33069 -15.8337 71.8975 0
733490 1 -86.8122 -62.5948 73.1266 0
733970 1 -14.3842 -52.2637 73.9092 0
735190 1 -70.4398 -28.178 74.636 0
735194 1 -68.8372 -26.149 75.8479 0
736359 1 -12.8791 -5.7652 75.1701 0
743160 1 -10.4253 -48.1731 78.6629 0
743739 1 -71.4024 -36.2431 79.3241 0
743897 1 -73.0108 -34.2306 78.0943 0
743899 1 -71.4082 -32.2028 79.3061 0
752718 1 -73.1235 -36.2337 81.612 0
752877 1 -74.7316 -34.2212 80.3815 0
752878 1 -73.1296 -32.1946 81.594 0
752880 1 -72.2658 -34.2187 80.4591 0
752883 1 -69.7999 -34.2168 80.536 0
753028 1 -69.8062 -30.1776 80.5186 0
760856 1 -25.463 -56.2629 85.2635 0
761419 1 -66.5784 -42.2827 83.0092 0
761423 1 -63.3685 -42.2737 85.4486 0
761916 1 -71.5216 -34.2086 82.8246 0
762407 1 -26.2566 -24.1028 82.9186 2
777359 1 -75.8423 -82.5819 92.3047 0
777493 1 -74.991 -80.5742 91.1421 0
778275 1 -67.639 -64.4297 91.2663 2
778473 1 -65.1803 -60.3956 91.3227 2
778475 1 -62.713 -60.3931 91.3953 2
4206599 1 -66.7963 -54.3553 90.0785 2
778768 1 -59.3962 -54.3506 90.2963 2
778772 1 -56.9296 -54.3481 90.3664 0
778901 1 -60.2618 -52.3314 91.437 2
778904 1 -56.0717 -52.3375 89.211 2
779075 1 -60.2686 -48.302 91.4228 2
779357 1 -71.7465 -42.2534 89.8799 0
777362 1 -73.3717 -82.5762 92.3808 0
787249 1 -64.4284 -64.4107 93.7064 2
787444 1 -66.0383 -62.4048 92.4776 2
787447 1 -63.5707 -62.4022 92.5508 2
4206601 1 -66.0467 -58.3741 92.461 2
787575 1 -63.5795 -58.3724 92.5346 2
787746 1 -64.446 -56.3521 93.6736 2
4206606 1 -66.9132 -56.3529 93.5991 2
787750 1 -63.5871 -54.3425 92.5191 2
787758 1 -56.1867 -54.3377 92.7335 2
788047 1 -60.3856 -50.3036 94.9452 2
788052 1 -56.1942 -50.3109 92.7202 0
788190 1 -56.201 -46.2843 92.7073 2
794623 1 -94.8803 -96.6587 97.6555 0
804275 1 -77.8152 -82.4991 101.587 0
823747 1 -53.3491 -52.2819 105.725 0
851587 1 -40.5222 -32.1815 115.414 2
851730 1 -41.3788 -30.1688 116.561 2
913866 1 -84.1388 -44.0591 139.852 2
1056145 1 -6.28742 111.939 -189.582 0
1057104 1 -13.9567 130.206 -188.626 0
4206665 1 -131.011 151.72 -186.735 0
4206666 1 -128.537 151.67 -186.653 0
1057950 1 -124.34 151.551 -188.838 0
1058101 1 -125.174 153.599 -187.742 0
4206668 1 -127.649 153.649 -187.825 0
1058102 1 -122.7 153.549 -187.659 0
1067225 1 -123.533 155.596 -186.562 0
1067227 1 -121.058 155.546 -186.479 0
1066909 1 -132.734 151.79 -184.465 0
4206679 1 -130.26 151.74 -184.383 0
4206682 1 -131.096 153.788 -183.287 0
4206697 1 -128.622 153.738 -183.205 0
4207476 1 -129.373 153.718 -185.556 0
4206670 1 -126.898 153.668 -185.474 0
4206683 1 -126.148 153.688 -183.124 0
4206436 1 -124.424 153.618 -185.392 0
1067224 1 -121.891 157.593 -185.38 0
4206684 1 -122.784 155.615 -184.213 0
1067228 1 -119.416 157.543 -185.296 0
1067380 1 -120.248 159.589 -184.195 0
1067384 1 -117.772 159.539 -184.111 0
1075888 1 -134.456 151.86 -182.194 0
1076055 1 -131.982 151.811 -182.113 0
1076056 1 -132.819 153.858 -181.016 0
1076059 1 -130.345 153.809 -180.935 0
4206681 1 -123.674 153.638 -183.043 0
4206698 1 -129.457 155.785 -182.108 0
4206702 1 -127.818 157.782 -180.928 0
4207480 1 -125.344 157.731 -180.846 0
4207481 1 -126.983 155.735 -182.026 0
4206700 1 -122.035 155.635 -181.864 0
4206705 1 -122.869 157.681 -180.765 0
4207479 1 -124.509 155.685 -181.945 0
4206437 1 -121.143 157.611 -183.031 0
4206693 1 -121.976 159.657 -181.931 0
4206438 1 -119.501 159.607 -181.847 0
1076364 1 -118.603 161.585 -183.007 0
4206439 1 -120.333 161.653 -180.745 0
1076543 1 -117.857 161.603 -180.66 0
1076218 1 -131.181 155.856 -179.837 0
4206701 1 -128.708 155.805 -179.756 0
4206714 1 -127.069 157.802 -178.577 0
4206715 1 -124.595 157.751 -178.496 0
1085344 1 -125.43 159.797 -177.396 0
1085346 1 -122.956 159.746 -177.315 0
4206716 1 -123.703 159.727 -179.665 0
4206704 1 -121.229 159.676 -179.582 0
4206440 1 -122.062 161.721 -178.481 0
1085518 1 -118.688 163.647 -179.555 0
1085519 1 -120.419 163.715 -177.293 0
1085520 1 -119.587 161.671 -178.397 0
1094498 1 -122.149 163.784 -175.029 0
1094499 1 -123.79 161.791 -176.214 0
1094500 1 -121.316 161.74 -176.132 0
1134931 1 -128.291 75.2459 -159.811 2
1169221 1 -163.147 43.9707 -146.377 0
1185050 1 -109.519 179.107 -141.607 2
1217546 1 -81.7848 108.034 -131.012 2
1230896 1 -155.671 16.163 -122.247 0
1231387 1 -130.084 25.8564 -122.931 0
1237929 1 -58.45 156.394 -122.058 2
1239616 1 -144.223 10.1262 -120.655 0
1239617 1 -145.089 12.1429 -119.549 0
1239618 1 -145.992 10.1788 -118.334 0
1239621 1 -142.616 12.1232 -119.491 0
1239916 1 -157.443 16.2211 -119.93 0
1242412 1 -9.11793 65.6155 -119.269 0
1242413 1 -7.38755 65.5498 -121.524 0
1242417 1 -5.7842 63.568 -120.241 0
1245153 1 -133.142 122.882 -120.029 0
1248589 1 -144.385 12.1753 -117.169 0
1250929 1 -17.4451 55.6375 -118.211 0
1257590 1 -153.564 12.2884 -115.033 0
1260262 1 -19.2802 61.7914 -112.616 0
1314148 1 -55.2501 57.9969 -95.328 0
1315252 1 -53.5665 80.2738 -94.5219 0
1315253 1 -51.9449 82.3049 -93.3399 0
1323014 1 -53.7395 53.946 -90.5774 0
1332193 1 -46.515 60.0696 -86.911 0
1340393 1 -83.4889 42.1951 -84.4129 0
1341704 1 -60.4647 68.2725 -85.2073 0
1342153 1 -65.3434 76.4158 -85.5231 0
1348940 1 -88.5824 32.2437 -80.9304 2
1351026 1 -74.5431 74.5413 -79.9775 0
1351039 1 -59.7824 74.4182 -79.4644 0
1351987 1 -50.5551 94.5905 -81.8918 0
1359746 1 -69.7504 68.4522 -76.2073 0
1360658 1 -57.3414 88.624 -76.163 0
1360851 1 -44.8852 90.5608 -79.2783 0
1361599 1 -67.8725 104.825 -79.1772 0
1366388 1 -53.5166 21.6556 -73.9667 2
1366389 1 -50.2024 19.5606 -75.0017 2
1366395 1 -47.7383 19.5187 -74.9173 2
1366559 1 -50.1562 23.6108 -75.05 2
1367638 1 -80.5019 46.3455 -75.0495 0
1371105 1 -33.4365 114.8 -74.7681 0
1378720 1 -51.7716 86.6457 -70.1074 0
1380953 1 -36.7811 131.059 -70.5321 0
1386954 1 -60.1078 72.5084 -68.9509 0
1386955 1 -58.5161 70.4848 -67.695 0
1390142 1 -35.163 133.091 -69.3479 0
1405123 1 -44.6419 74.5681 -62.6293 0
1405720 1 -44.579 86.692 -62.887 0
1407949 1 -22.2379 131.133 -63.0308 0
1412013 1 -110.777 33.2032 -58.2181 0
1420408 1 -114.948 21.2495 -55.6994 0
1438332 1 -121.646 19.462 -50.02 0
1447010 1 -125.874 13.5822 -44.2153 0
1453744 1 -28.4614 147.611 -44.9276 0
1464653 1 -98.5582 7.63585 -39.9001 2
1556780 1 -120.582 54.7403 -5.21362 0
1627933 1 -83.7279 38.0106 20.3786 2
1654788 1 -43.3697 36.2478 28.1567 0
1664101 1 -52.598 42.4895 33.2112 0
1673896 1 -42.1936 58.754 34.0854 0
1674041 1 -40.5752 60.8002 35.2781 0
1676853 1 -67.417 119.634 37.0525 2
1690947 1 -43.8128 40.6299 41.9963 0
1691120 1 -42.1768 42.6924 43.2196 0
1699941 1 -45.5339 40.695 44.2227 0
1700098 1 -75.1306 43.1393 46.0249 0
1700118 1 -43.8986 42.7587 45.4423 0
1700260 1 -42.2619 44.8225 46.6711 0
1700264 1 -40.5384 44.7551 44.4503 0
1700578 1 -66.8451 53.098 44.8378 0
1700737 1 -27.0826 54.8152 43.8401 0
1709079 1 -103.238 43.6044 49.5756 0
1709080 1 -101.515 43.5456 47.3083 0
1709082 1 -99.9072 41.5672 48.5939 0
1709083 1 -100.767 43.5866 49.6802 0
1709087 1 -98.2936 43.5562 49.7731 0
1709108 1 -76.8235 43.2637 48.2867 0
1709197 1 -99.8984 45.5298 48.4871 0
1710054 1 -30.3607 63.0566 48.334 0
1710513 1 -68.8778 71.4297 49.7677 0
1716832 1 -18.7484 16.4386 52.6932 0
1718048 1 -101.631 41.6271 50.858 0
1718050 1 -100.021 43.6311 52.0544 0
1718167 1 -104.099 45.623 50.6684 0
1718172 1 -101.628 45.6079 50.7695 0
1719721 1 -10.6683 73.108 52.3826 2
1727128 1 -73.6891 45.458 54.2138 0
1727442 1 -112.498 53.7312 54.843 0
1728743 1 -60.8536 77.635 55.5751 0
1736006 1 -22.7947 42.9958 57.9939 0
1737860 1 -70.8172 79.76 58.782 0
1745444 1 -36.0438 51.2975 62.0478 0
1745917 1 -23.4662 63.3166 62.5192 0
1747163 1 -74.2085 87.9717 63.1261 0
1763828 1 -130.263 62.0015 68.0955 2
1791428 1 -75.6546 74.3047 78.5415 0
1791614 1 -77.2401 76.2743 77.2848 0
1791619 1 -75.619 78.3271 78.4274 0
1800421 1 -77.3865 74.3851 80.8045 0
1800595 1 -78.9707 76.3475 79.5528 0
1800596 1 -77.3472 78.399 80.6996 0
1800598 1 -74.034 76.3599 79.677 0
1800600 1 -75.7618 76.4336 81.9474 0
4206441 1 -76.5024 76.3554 79.6151 0
1836773 1 -76.9288 80.6453 93.4289 0
1855634 1 -95.1153 95.0119 100.724 0
2090924 1 -1.31624 109.786 186.258 0
2102024 1 -125.926 153.58 189.093 0
2104771 1 95.0616 -154.971 -186.644 0
2104772 1 93.4711 -152.964 -187.87 0
2150239 1 171.628 -143.156 -170.943 0
2235300 1 132.936 -55.4505 -141.724 0
2306849 1 0.417811 -53.0772 -117.196 2
2331962 1 83.1085 -88.7845 -106.414 0
2349843 1 93.5323 -94.9104 -100.219 0
2367875 1 74.3339 -92.5364 -94.9101 0
2368188 1 79.366 -88.5978 -94.8194 0
2380287 1 174.771 -27.3069 -89.2955 0
2387273 1 2.38329 -64.7379 -86.6218 0
2389486 1 176.42 -25.2871 -88.1156 0
2396283 1 160.533 -67.349 -84.7392 0
2404747 1 90.5409 -78.5006 -79.4292 0
2407885 1 66.9919 -14.0743 -81.4428 0
2415153 1 65.6006 -48.0823 -79.2581 0
2423031 1 74.7967 -70.1353 -75.2306 0
2425227 1 66.5623 -25.9568 -74.0838 0
2432925 1 63.4238 -51.78 -69.8234 0
2433429 1 91.8696 -42.2457 -70.4879 2
2434997 1 80.7395 -11.9709 -72.7275 0
2441277 1 66.2996 -63.7864 -67.2901 0
2441413 1 64.7519 -61.7906 -68.5203 0
2442513 1 88.555 -40.1798 -69.4663 2
2443185 1 84.5369 -28.0241 -67.5377 0
2443951 1 72.2041 -11.8655 -68.431 0
2448593 1 5.19796 -95.0026 -64.1026 2
2451156 1 68.3463 -45.7004 -66.2455 0
2451964 1 79.4014 -29.934 -64.2035 0
2452768 1 78.5809 -15.867 -63.4101 0
2453364 1 64.542 -1.75952 -65.4856 0
2461750 1 75.8763 -13.8426 -60.0597 0
2461756 1 80.1764 -13.8543 -62.2278 0
2466261 1 58.6515 -103.872 -57.8013 2
2468921 1 58.6767 -49.21 -57.0115 0
2469077 1 58.7582 -45.1445 -57.0587 0
2469241 1 65.5764 -41.2678 -59.2583 0
2470187 1 77.4932 -23.8606 -58.6041 0
2475211 1 58.5399 -101.809 -54.3212 2
2477242 1 61.5815 -61.3434 -54.537 0
2477256 1 81.5078 -61.8499 -54.1282 0
2477332 1 159.149 -61.0115 -55.5113 0
2478012 1 60.3028 -47.1331 -55.8015 0
2478179 1 62.8533 -43.0724 -55.7727 0
2478989 1 104.817 -25.9625 -53.9515 2
2479103 1 75.7016 -23.8688 -56.3372 0
2486018 1 83.081 -63.8865 -52.9069 0
2486250 1 157.485 -60.9894 -53.2041 0
2487929 1 101.375 -27.9306 -52.9246 2
2494991 1 117.831 -66.3255 -48.434 0
2495436 1 91.4301 -53.965 -47.0257 0
2495592 1 53.8996 -52.9245 -47.7502 0
2502223 1 94.6539 -100.186 -45.2053 2
2502418 1 91.3208 -98.1161 -44.1527 2
2502645 1 14.4776 -89.1323 -46.3391 0
2503646 1 89.28 -69.9456 -44.5337 0
2504573 1 55.523 -50.857 -46.532 0
2512601 1 90.8539 -71.9625 -43.3048 0
2513216 1 96.8416 -59.9648 -40.9529 0
2521840 1 99.9631 -63.9793 -38.4774 0
2521993 1 98.4024 -61.972 -39.7145 0
2522630 1 110.333 -47.9976 -38.349 0
2529777 1 18.1322 -85.1339 -34.5595 0
2531902 1 92.7673 -41.814 -35.5071 2
2542131 1 108.031 -17.6551 -33.068 2
2560181 1 93.0981 -13.4523 -26.747 0
2560628 1 88.1854 -5.33146 -27.1074 0
2563425 1 0.126233 -127.29 -24.3027 2
2577526 1 96.9061 -27.4862 -18.1601 0
2595781 1 95.0957 -21.2974 -12.5519 0
2601723 1 8.65892 -81.0599 -9.07436 0
2603681 1 95.7635 -41.4605 -9.73751 0
2621569 1 93.0915 -45.321 -2.75617 0
2621673 1 91.4893 -43.3042 -4.01597 0
2629170 1 103.799 -75.5886 -0.718349 0
2629925 1 130.759 -58.1539 1.04923 0
2637376 1 127.889 -88.6826 3.57603 0
2637956 1 116.927 -78.5496 3.87283 0
2638450 1 103.241 -67.7363 3.91424 0
2646682 1 109.613 -84.7445 7.5574 0
2664962 1 86.3288 -77.0283 11.6391 0
2665778 1 117.266 -61.8908 12.3712 0
2665888 1 113.994 -59.7859 13.365 0
2673809 1 97.6641 -80.9362 16.7095 0
2683203 1 102.392 -74.6185 20.3215 0
2683329 1 117.061 -69.8231 19.6773 0
2683333 1 119.565 -69.7863 19.7253 0
2683519 1 116.226 -67.7265 20.7014 0
2683522 1 118.726 -67.6939 20.7568 0
2692318 1 117.88 -69.6982 22.003 0
2692383 1 7.19085 -66.8409 22.3721 2
2701759 1 122.893 -63.2721 25.2903 0
2702078 1 122.93 -55.2051 25.0664 0
2702992 1 106.403 -34.8476 26.493 2
2704107 1 107.915 -12.673 27.2188 2
2709797 1 101.328 -80.7092 28.4227 0
2728136 1 95.0133 -74.7466 36.4232 0
2728139 1 96.7454 -74.7731 34.1407 0
2736370 1 79.4527 -88.788 37.3098 2
2737325 1 96.5921 -72.7281 37.6098 0
2739830 1 8.92831 -20.136 39.7435 2
2746133 1 18.12 -74.7383 41.3474 2
2773462 1 94.483 -66.5107 50.2427 0
2781659 1 83.765 -82.5276 54.8601 0
2785636 1 66.2642 -5.97386 54.3616 0
2785638 1 67.9193 -3.95547 55.6303 0
2785813 1 102.935 -2.11904 53.6959 0
2799859 1 87.6091 -80.4011 63.0885 0
2802224 1 101.407 -32.2222 60.1807 2
2802225 1 100.559 -34.2116 61.3772 2
2811273 1 15.5361 -29.994 64.388 2
2820363 1 15.4194 -27.9399 67.882 2
2820877 1 24.4164 -17.8219 69.3712 2
2829040 1 5.44572 -34.0084 71.0326 0
2829553 1 4.5613 -23.8834 72.1997 0
2834305 1 61.898 -108.399 74.4555 2
2837482 1 65.5911 -45.929 74.9204 0
2837484 1 68.0647 -45.9207 74.9713 0
2838352 1 6.1743 -25.8941 73.4096 0
2838353 1 4.45384 -25.8867 75.6803 0
2838549 1 2.84125 -23.8769 74.4705 0
2846121 1 72.9132 -51.8938 78.6369 0
2846263 1 69.6813 -47.9055 76.1903 0
2846264 1 67.9608 -47.8532 78.4825 0
2846265 1 71.2974 -49.8964 77.4122 0
2846267 1 70.4338 -47.8546 78.5346 0
4206444 1 72.9065 -47.8617 78.5865 0
4206442 1 68.8184 -45.8656 77.3149 0
4206443 1 71.2915 -45.8662 77.3653 0
2846433 1 78.7088 -45.9 77.5154 0
2846565 1 69.6763 -43.8781 76.1471 0
2846566 1 67.9571 -43.8235 78.4395 0
4206445 1 70.4311 -43.8229 78.4889 0
2846572 1 73.7644 -41.8411 77.3665 0
2847086 1 81.2052 -33.8237 77.3783 0
2847315 1 17.5363 -25.8391 78.4401 0
2847949 1 4.30703 -15.7425 79.2186 0
2855132 1 27.3855 -48.0079 82.1074 0
2855182 1 72.0491 -49.8512 79.757 0
2855185 1 74.5212 -49.8643 79.8112 0
2855187 1 73.6599 -47.8192 80.9298 0
4206867 1 72.0454 -45.8171 79.7078 0
2855341 1 74.5187 -45.8294 79.7582 0
2855344 1 76.9916 -45.8462 79.8087 0
2855481 1 72.0474 -41.7822 79.6599 0
2855482 1 70.3296 -41.7179 81.9497 0
2855484 1 71.1863 -43.7695 80.829 0
2855486 1 76.1348 -43.7995 80.9267 0
4206446 1 73.6608 -43.7822 80.878 0
2864438 1 74.4188 -43.7389 83.2167 0
2865171 1 8.30317 -27.8514 83.9493 0
2865496 1 17.2803 -21.7686 85.4502 0
2865675 1 4.19776 -17.7527 82.7009 0
2871704 1 94.8215 -76.1484 86.5405 0
2872567 1 31.4585 -60.0262 86.9338 0
2873247 1 30.4795 -45.9343 87.9784 0
2874345 1 12.2401 -23.7856 88.7653 0
2874460 1 10.6279 -21.765 87.5568 0
2874642 1 8.14715 -17.7189 87.4976 0
2875440 1 5.61845 -1.49493 87.5178 0
2883236 1 10.5192 -23.7868 91.0361 0
2883361 1 8.90682 -21.7652 89.8279 0
2883362 1 10.5017 -19.7368 91.0605 0
2883364 1 12.1141 -21.7635 92.2685 0
2883365 1 11.3708 -21.7616 89.9127 0
2883368 1 13.8346 -21.7618 89.9973 0
2883683 1 20.3387 -15.7072 91.4188 0
2897442 1 37.1885 -95.978 96.8996 2
2907610 1 26.9685 -69.8679 99.7248 0
2916250 1 35.858 -77.67 104.775 0
2916726 1 40.0522 -69.6188 102.435 0
2925323 1 37.4452 -75.5998 105.956 0
2926758 1 2.58296 -45.9243 108.091 0
2926903 1 0.972437 -43.9301 106.895 0
2933404 1 47.1983 -93.6007 110.04 0
2942424 1 120.373 -93.8905 114.302 0
2943637 1 42.1021 -67.2345 112.921 0
2947818 1 163.022 -164.975 115.441 2
2947820 1 163.722 -164.722 117.945 2
3035545 1 10.6621 -37.0157 144.295 0
3040499 1 80.1569 -117.202 148.537 2
3044265 1 21.1428 -43.4534 150.329 0
4206953 1 137.767 -180.164 159.115 0
4206969 1 139.352 -178.077 160.294 0
4207014 1 165.137 -176.342 160.075 0
3073491 1 136.125 -180.13 161.379 0
4207066 1 140.267 -178.167 162.554 0
3073588 1 138.542 -176.063 161.409 0
4206999 1 140.942 -176.054 161.474 0
4207498 1 143.326 -176.172 161.661 0
4207499 1 145.059 -174.103 162.71 0
4207517 1 144.345 -176.072 163.856 0
4207119 1 147.449 -174.818 162.851 0
4207492 1 164.208 -174.345 161.296 2
4207514 1 164.216 -178.282 161.285 2
3073763 1 140.194 -174.037 162.593 0
4207072 1 142.634 -174.051 162.668 0
4207076 1 165.996 -172.272 162.294 0
4207504 1 163.633 -168.29 162.216 0
4207501 1 149.826 -166.205 162.928 0
4207515 1 162.927 -166.098 163.121 0
4207040 1 148.511 -163.983 161.6 0
4207042 1 150.937 -164.041 161.905 0
4207084 1 150.198 -161.896 162.728 0
4207507 1 152.725 -162.008 162.757 0
4207516 1 160.183 -162.097 163.073 0
4207510 1 155.227 -157.935 162.835 0
4207056 1 156.903 -158.038 160.615 0
4207143 1 164.444 -172.2 164.527 0
4207167 1 151.918 -159.956 163.878 0
4207529 1 154.43 -160.027 163.902 0
4207169 1 156.953 -159.981 164.007 0
4207171 1 159.432 -159.961 164.128 0
3137102 1 92.6867 -159.181 185.597 0
3137247 1 83.6355 -157.158 184.244 0
3146093 1 90.9643 -159.128 187.886 0
3146094 1 91.7989 -161.182 186.773 0
3146256 1 89.3686 -157.121 186.663 0
3146259 1 91.8551 -157.126 186.71 0
3193346 1 41.474 68.1202 -175.567 2
3203721 1 15.9608 96.2826 -172.414 0
3249750 1 91.1715 119.085 -154.815 0
3268977 1 94.8994 143.89 -149.993 2
3283544 1 5.74004 77.0449 -142.18 2
3284554 1 37.1755 97.124 -143.734 0
3301831 1 19.6193 81.192 -137.084 0
3301961 1 37.7843 83.0868 -137.546 0
3302555 1 14.74 97.4185 -137.68 0
3309600 1 78.8383 56.7725 -134.136 2
3311251 1 16.1968 89.4148 -132.788 0
3318172 1 100.895 46.7763 -129.547 2
3320345 1 67.2064 91.184 -129.58 2
3320492 1 36.7044 93.3839 -129.732 0
3329414 1 70.4232 91.2338 -127.127 2
3337756 1 43.112 77.2832 -124.355 2
3338043 1 15.0726 83.5402 -124.565 0
3338247 1 24.9707 87.5258 -124.266 0
3338248 1 23.243 87.5889 -122.021 0
3355254 1 0.668963 67.6924 -115.428 0
3355612 1 56.8341 75.418 -115.542 2
3366456 1 6.51451 112.153 -114.026 2
3370733 1 27.3569 17.2933 -109.542 2
3373304 1 82.9909 67.494 -109.639 2
3379870 1 26.5056 19.345 -108.452 2
3382740 1 21.8478 77.8377 -106.71 0
3392136 1 40.8039 87.8438 -104.997 0
3400353 1 65.3479 69.8097 -99.8082 0
3401163 1 92.619 85.9267 -99.265 0
3409453 1 55.372 75.9214 -96.8614 0
3411932 1 11.7527 124.515 -97.8597 2
3418272 1 58.5666 71.9844 -94.2615 0
3418433 1 56.9701 73.9517 -95.5592 0
3418570 1 23.7507 78.1581 -92.7258 0
3418718 1 24.6366 80.1395 -93.9161 0
3428979 1 61.6806 106.413 -89.5808 0
3429591 1 39.5089 118.542 -90.9445 2
3429737 1 42.845 120.536 -92.0342 2
3438080 1 50.1054 110.562 -87.9633 0
3444848 1 82.1682 66.2574 -85.0322 0
3445002 1 83.7965 68.3117 -83.852 0
3445165 1 93.719 72.3351 -83.5895 0
3445612 1 81.3937 80.4005 -84.2513 0
3453852 1 77.1023 64.3596 -81.6573 0
3454308 1 76.2994 74.4855 -80.7477 0
3454466 1 78.7992 78.5149 -80.7629 0
3461599 1 83.4366 40.2519 -76.2038 2
3462819 1 82.8186 64.4262 -79.1203 0
3463472 1 77.0803 78.5973 -78.4759 0
3463473 1 78.6912 76.6187 -77.1992 0
3463918 1 62.2255 86.632 -79.2035 0
3472443 1 76.9806 76.6947 -74.916 0
3472444 1 78.6152 78.7513 -73.7354 0
3479676 1 83.4117 42.3788 -72.7638 2
3490753 1 61.204 82.9915 -67.3243 0
3508407 1 83.3116 72.9322 -62.917 0
3508889 1 98.9469 84.9842 -60.1908 0
3509872 1 167.464 104.477 -61.0001 2
3518671 1 100.046 101.148 -57.5583 0
3523886 1 80.8332 24.601 -54.8335 0
3523890 1 85.7165 24.5947 -54.6781 0
3524338 1 75.0268 34.7373 -54.1525 0
3526376 1 77.3864 75.108 -54.9494 0
3527841 1 101.678 103.178 -56.3761 0
3532585 1 71.8566 16.5209 -52.6382 2
3533365 1 76.6383 32.7353 -52.8777 0
3536546 1 69.2443 95.3221 -50.6545 0
3545915 1 65.1796 103.411 -48.3654 0
3551324 1 82.947 30.8424 -44.435 0
3553853 1 68.1636 79.2931 -45.8609 0
3560355 1 81.242 30.8873 -42.1558 0
3568597 1 83.616 12.7298 -38.1352 0
3573117 1 64.8887 105.611 -37.8456 0
3577583 1 85.2147 14.7724 -36.9591 0
3594973 1 68.5159 2.82197 -28.0787 2
3609283 1 164.16 105.223 -25.9287 0
3609284 1 165.786 107.243 -24.8295 0
3609636 1 156.773 113.384 -26.1059 0
3635244 1 67.4365 87.7622 -17.7801 2
3636583 1 161.553 111.541 -15.3471 0
3703136 1 90.2654 3.34662 10.0042 2
3804489 1 44.5225 58.4842 46.1617 2
3820115 1 61.4871 12.1282 50.7128 0
3822841 1 112.736 66.3064 52.771 2
3829159 1 82.7953 12.0766 56.1761 0
3829163 1 85.2796 12.0629 56.272 0
3839299 1 113.206 32.1107 59.0649 2
3848133 1 114.812 30.1065 60.3074 2
3848296 1 112.331 34.1452 60.1718 2
3848298 1 113.931 32.1394 61.4134 2
3848566 1 72.6077 40.4199 62.3673 0
3850030 1 90.1471 68.6022 62.5185 0
3857611 1 79.8621 38.4354 66.0978 0
3857940 1 77.4593 46.5091 65.9188 0
3859072 1 105.719 68.5618 65.3396 0
3859190 1 91.7689 70.6318 63.7073 0
3866480 1 77.219 36.484 69.5478 0
3867009 1 129.448 46.2348 67.5836 2
3867094 1 79.8104 48.5775 69.4527 0
3867422 1 82.3673 56.6386 69.4241 0
3867454 1 108.848 56.4747 67.9268 0
3867580 1 80.7831 58.6412 68.1892 0
3876761 1 84.881 60.6656 69.4486 0
3876762 1 87.3541 60.6579 69.5226 0
3876904 1 92.3378 64.6724 69.6245 0
3874531 1 77.7873 16.3858 72.2341 0
3876299 1 99.6497 52.5332 70.0006 0
3876433 1 80.6293 56.6836 71.703 0
3876435 1 83.9507 54.6369 70.6589 0
3876594 1 79.0466 58.685 70.4689 0
3876596 1 82.2558 58.7167 72.8892 0
4206447 1 81.5195 58.6782 70.5394 0
4206448 1 83.9927 58.6709 70.611 0
3876689 1 20.6037 62.9926 71.0432 2
4206449 1 83.1455 60.7107 71.7262 0
4206450 1 85.6188 60.7034 71.7988 0
4206451 1 84.7722 62.7431 72.9137 0
3876763 1 88.9791 62.6912 70.7137 0
3876764 1 86.5065 62.6983 70.6377 0
4207243 1 88.132 64.7332 71.8309 0
4207244 1 90.6043 64.7225 71.9029 0
3867888 1 94.8109 64.6607 69.7007 0
3876905 1 91.4904 66.7129 70.7381 0
3877092 1 93.9631 66.7015 70.8138 0
3877093 1 95.5878 68.7309 72.0042 0
4206455 1 93.1163 68.742 71.9268 0
3877098 1 96.4356 66.6898 70.8913 0
3877552 1 94.0589 78.806 70.6664 0
3883162 1 7.68594 12.5541 74.6784 2
3884646 1 79.5551 38.5607 73.0787 0
3885751 1 81.4097 60.7566 74.0049 0
3885755 1 83.0374 62.7898 75.1919 0
3885753 1 83.8831 60.7499 74.0761 0
4206452 1 87.2452 62.7375 72.9882 0
4207245 1 83.9247 64.7813 74.0281 0
4207246 1 86.4011 64.7753 74.1019 0
4207260 1 88.8616 64.7944 74.1905 0
4207531 1 85.5311 66.7874 75.2012 0
4207252 1 88.9379 68.8062 74.1068 0
4207566 1 88.0008 66.8741 75.3257 0
4206454 1 92.2305 66.7502 73.0901 0
4207248 1 89.7584 66.7613 73.0182 0
4207468 1 91.3883 68.7869 74.204 0
4206457 1 93.8558 68.7795 74.2799 0
4207532 1 90.5532 70.8234 75.2879 0
3886191 1 94.7396 70.7719 73.1175 0
3886192 1 93.8893 72.8113 74.232 0
4207266 1 93.0072 70.8179 75.395 0
3886197 1 97.9519 70.7957 75.5485 0
3886403 1 112.819 74.7353 75.9839 0
3886516 1 83.1953 78.9293 74.9964 0
3886694 1 91.4862 80.8927 74.0556 0
3892425 1 75.7823 14.5447 78.071 0
3892890 1 66.9138 24.5067 76.4565 0
3893544 1 76.9026 36.6196 76.5341 0
3893951 1 16.0579 44.8932 76.9587 2
3894140 1 75.306 48.7575 78.6473 0
3894328 1 73.7323 50.7526 77.4139 0
3894351 1 92.6827 52.7407 79.088 0
3894942 1 82.1941 64.8311 76.3076 0
4207257 1 84.6661 64.8226 76.3812 0
3895112 1 82.9796 68.9055 78.6093 0
4207270 1 83.8315 66.8696 77.4924 0
4207273 1 84.7884 68.8565 76.3371 0
4207274 1 85.4339 68.9027 78.7128 0
4207567 1 89.5663 68.8929 76.5051 0
4207277 1 86.4228 70.8331 77.4949 0
4207267 1 89.6627 72.8041 76.4689 0
3895416 1 76.4897 74.9529 77.1847 0
3895424 1 85.507 72.9031 78.6224 0
4207268 1 92.1533 72.8545 76.5099 0
4207280 1 90.4574 72.9376 78.7992 0
3895733 1 84.8199 80.9605 76.1832 0
3901458 1 61.7585 14.4334 79.9658 0
3902881 1 67.6647 42.7791 82.0349 0
3903042 1 66.0961 44.7716 80.7979 0
3903046 1 67.7197 46.8126 81.9773 0
4207281 1 87.0517 70.9208 79.8929 0
3904495 1 92.0635 74.9417 79.974 0
3912120 1 69.2878 44.8214 83.2129 0
3922908 1 51.4867 81.2642 86.8834 0
3922943 1 93.4886 81.1236 88.0951 0
3924125 1 38.5228 107.607 87.2276 2
3931936 1 61.2157 79.2765 90.6905 0
3937160 1 47.4028 4.36477 92.4238 2
3941088 1 51.2792 85.429 93.8056 2
3941286 1 54.6321 87.4146 92.7027 2
3946003 1 6.96387 0.583534 95.7762 0
3946004 1 8.55089 2.61916 97.0116 0
3951149 1 71.0754 103.589 97.5918 2
3959530 1 56.8934 91.5707 99.6899 0
3960193 1 74.2906 103.614 100.019 2
3982191 1 45.2784 0.403257 108.728 2
3986483 1 71.3112 85.6606 110.691 2
3986486 1 73.7859 85.6491 110.762 2
3995980 1 68.8123 95.8082 113.939 0
4124855 1 151.859 160.459 157.522 0
4207369 1 136.803 174.752 160.312 0
4207370 1 137.722 176.723 159.189 0
4125708 1 136.182 178.758 157.95 0
4125709 1 134.476 178.807 160.212 0
4207065 1 136.908 178.787 160.291 0
4207496 1 139.27 178.798 160.311 0
4133805 1 143.491 160.549 161.895 0
4206460 1 145.969 160.531 161.969 0
4133811 1 148.448 160.515 162.042 0
4133816 1 150.925 160.499 162.115 0
4133918 1 141.027 164.609 161.768 0
4133919 1 142.644 162.597 162.999 0
4134113 1 143.498 164.61 161.857 0
4133921 1 145.987 164.565 161.917 0
4133923 1 145.123 162.573 163.076 0
4133926 1 148.469 164.563 161.997 0
4133929 1 147.606 162.557 163.145 0
4133931 1 150.086 162.544 163.219 0
4133932 1 152.564 162.519 163.293 0
4207307 1 150.946 164.562 162.075 0
4206458 1 154.268 162.482 161.031 0
4207380 1 153.433 164.515 162.131 0
4207375 1 140.18 166.647 162.868 0
4207384 1 142.701 166.761 162.895 0