ITEM: TIMESTEP
12
ITEM: NUMBER OF ATOMS
105465
ITEM: BOX BOUNDS pp pp pp
-2.2935500637699999e+01 8.2935500637700002e+01
-5.4839663411200000e+01 5.4839663411200000e+01
-4.3997945384600001e+01 6.3997945384600001e+01
ITEM: ATOMS id type x y z
2 1 -22.2879 -52.2247 -43.437
4 1 -20.9229 -53.6912 -42.044
6 1 -20.8298 -50.8201 -41.9665
8 1 -19.4356 -52.2267 -43.4569
10 1 -18.0555 -53.6888 -42.05
12 1 -17.9772 -50.8259 -41.9812
14 1 -16.5712 -52.23 -43.4607
16 1 -15.1801 -53.6894 -42.0433
20 1 -13.6938 -52.2349 -43.4492
18 1 -15.1133 -50.8285 -41.9828
22 1 -12.2981 -53.6914 -42.0275
26 1 -10.8118 -52.2383 -43.4315
24 1 -12.2399 -50.8298 -41.9732
28 1 -9.41354 -53.6927 -42.007
31 1 -7.92917 -52.2397 -43.4113
29 1 -9.3622 -50.8296 -41.9575
33 1 -6.52906 -53.6926 -41.9841
34 1 -6.48329 -50.8281 -41.9385
36 1 -5.0475 -52.2396 -43.3896
38 1 -3.60453 -50.8255 -41.9176
37 1 -3.64561 -53.6913 -41.9599
40 1 -2.16709 -52.2382 -43.367
41 1 -0.763365 -53.6888 -41.9349
42 1 -0.726208 -50.8222 -41.8955
44 1 0.712333 -52.2362 -43.3434
45 1 2.11793 -53.6859 -41.9095
46 1 2.15189 -50.8186 -41.8724
48 1 3.59135 -52.234 -43.3192
49 1 4.9988 -53.683 -41.8836
50 1 5.0301 -50.8155 -41.8487
52 1 6.47052 -52.2323 -43.2943
53 1 7.87967 -53.6806 -41.8571
56 1 9.35011 -52.2316 -43.2686
54 1 7.90866 -50.8132 -41.824
57 1 10.7606 -53.6792 -41.83
60 1 12.2299 -52.2323 -43.2425
58 1 10.7875 -50.8122 -41.7984
61 1 13.6414 -53.6793 -41.8024
64 1 15.1094 -52.2348 -43.2164
62 1 13.6662 -50.8128 -41.7723
65 1 16.5214 -53.6813 -41.7749
66 1 16.5439 -50.8154 -41.7462
68 1 17.9879 -52.2393 -43.191
69 1 19.4 -53.6852 -41.748
70 1 19.4203 -50.82 -41.7208
72 1 20.865 -52.2458 -43.1665
73 1 22.2771 -53.6911 -41.7224
74 1 22.2947 -50.8265 -41.6964
76 1 23.7406 -52.2542 -43.1435
77 1 25.1524 -53.6989 -41.6983
78 1 25.1671 -50.8352 -41.6735
80 1 26.6145 -52.2648 -43.1221
84 1 29.4867 -52.2779 -43.1026
81 1 28.0259 -53.7089 -41.676
82 1 28.0371 -50.8467 -41.6521
165 1 -22.1836 -49.3439 -43.3577
168 1 -20.7493 -47.9294 -41.91
167 1 -22.1019 -46.4465 -43.3077
170 1 -19.3435 -49.3562 -43.382
173 1 -17.9036 -47.9435 -41.9254
172 1 -19.2655 -46.4687 -43.3292
177 1 -16.4246 -46.4869 -43.3434
175 1 -16.4947 -49.3672 -43.3954
182 1 -13.568 -46.4965 -43.3417
180 1 -13.6288 -49.3729 -43.3911
178 1 -15.0496 -47.9526 -41.9311
187 1 -10.7025 -46.5008 -43.3322
185 1 -10.7554 -49.3752 -43.3788
183 1 -12.1847 -47.9566 -41.925
192 1 -7.83289 -46.5022 -43.3188
190 1 -7.87953 -49.3754 -43.3628
188 1 -9.31364 -47.9575 -41.9124
193 1 -6.44 -47.9564 -41.8961
197 1 -4.96131 -46.5016 -43.3029
196 1 -5.00318 -49.3741 -43.3447
198 1 -3.5654 -47.954 -41.8776
201 1 -2.12705 -49.3718 -43.325
203 1 -0.69034 -47.951 -41.8576
202 1 -2.08876 -46.5 -43.2854
206 1 0.748961 -49.3691 -43.3041
208 1 2.18519 -47.9479 -41.8365
207 1 0.784527 -46.4979 -43.2664
211 1 3.62524 -49.3666 -43.2822
213 1 5.06127 -47.9452 -41.8144
216 1 6.50211 -49.365 -43.2593
217 1 6.53357 -46.495 -43.2251
212 1 3.65864 -46.4961 -43.2463
221 1 9.3796 -49.3645 -43.2355
218 1 7.93789 -47.9435 -41.7913
222 1 9.40919 -46.4952 -43.2028
226 1 12.2573 -49.3657 -43.211
223 1 10.8148 -47.9431 -41.7672
227 1 12.285 -46.4969 -43.1798
231 1 15.1347 -49.3687 -43.1865
228 1 13.6915 -47.9444 -41.7424
232 1 15.1604 -46.5006 -43.1567
233 1 16.5672 -47.9476 -41.7176
236 1 18.011 -49.3737 -43.1625
238 1 19.4414 -47.9528 -41.6934
237 1 18.0348 -46.5063 -43.134
241 1 20.8857 -49.3808 -43.1395
243 1 22.3135 -47.96 -41.6701
242 1 20.9075 -46.5141 -43.1121
246 1 23.7587 -49.3899 -43.1177
248 1 25.1834 -47.9695 -41.6482
247 1 23.7783 -46.5239 -43.0915
251 1 26.6298 -49.4014 -43.0975
252 1 26.6469 -46.5361 -43.0723
253 1 28.0505 -47.9819 -41.6276
256 1 29.4987 -49.4159 -43.0789
257 1 29.5127 -46.5513 -43.0547
1 1 -22.3112 -52.2855 -40.5482
3 1 -20.9393 -53.7512 -39.1531
5 1 -20.8669 -50.8662 -39.0941
4680 1 -22.3437 -52.3295 -37.675
7 1 -19.4604 -52.2874 -40.5682
9 1 -18.0761 -53.747 -39.1618
11 1 -18.0112 -50.8703 -39.1061
13 1 -16.5955 -52.2866 -40.5725
4684 1 -19.4899 -52.3315 -37.6927
4688 1 -16.6252 -52.3295 -37.6966
15 1 -15.2038 -53.7432 -39.1582
19 1 -13.7229 -52.2855 -40.5664
17 1 -15.146 -50.8706 -39.1067
4692 1 -13.7538 -52.3261 -37.6908
21 1 -12.3261 -53.7399 -39.1464
25 1 -10.8448 -52.2842 -40.5522
23 1 -12.2747 -50.869 -39.0988
4696 1 -10.878 -52.322 -37.6778
27 1 -9.44498 -53.7367 -39.1282
30 1 -7.96425 -52.2822 -40.5332
4699 1 -9.39907 -50.8664 -39.0841
32 1 -6.56245 -53.733 -39.1061
4704 1 -6.52121 -50.8628 -39.0649
4701 1 -7.9994 -52.3174 -37.6593
35 1 -5.08321 -52.2792 -40.5114
4709 1 -3.67969 -53.7287 -39.0817
4710 1 -3.64251 -50.8583 -39.0432
39 1 -2.20249 -52.2754 -40.488
4715 1 -0.797236 -53.7235 -39.0561
4716 1 -0.763494 -50.8532 -39.0199
43 1 0.677785 -52.271 -40.4637
4721 1 2.08475 -53.7181 -39.03
4722 1 2.11567 -50.8479 -38.9957
47 1 3.55775 -52.2666 -40.4388
4727 1 4.96633 -53.7127 -39.0033
4728 1 4.99488 -50.8428 -38.9707
51 1 6.43765 -52.2626 -40.4132
4733 1 7.84764 -53.7079 -38.976
55 1 9.31764 -52.2596 -40.3868
4734 1 7.8741 -50.8386 -38.9447
4739 1 10.7287 -53.7043 -38.9478
59 1 12.1975 -52.258 -40.3595
4740 1 10.7532 -50.8355 -38.9177
4745 1 13.6093 -53.7021 -38.9187
63 1 15.0768 -52.2582 -40.3317
4746 1 13.6319 -50.834 -38.8898
4752 1 16.5094 -50.8342 -38.8614
4751 1 16.4889 -53.7017 -38.8891
67 1 17.9548 -52.2602 -40.304
4757 1 19.3671 -53.7031 -38.8598
4758 1 19.3852 -50.8363 -38.8332
71 1 20.831 -52.2642 -40.2771
4763 1 22.2432 -53.7063 -38.8315
4764 1 22.2586 -50.8403 -38.8059
75 1 23.7051 -52.2702 -40.2514
4769 1 25.1171 -53.7116 -38.8044
4770 1 25.1293 -50.8466 -38.7797
79 1 26.5768 -52.2785 -40.2273
4775 1 27.9884 -53.7195 -38.7789
4776 1 27.9969 -50.856 -38.7548
83 1 29.4459 -52.2901 -40.2045
164 1 -22.2307 -49.3913 -40.4897
4891 1 -20.804 -47.9706 -39.0505
166 1 -22.1694 -46.4925 -40.4533
171 1 -19.3224 -46.5101 -40.4675
169 1 -19.3861 -49.404 -40.5102
4897 1 -17.9509 -47.9816 -39.0608
174 1 -16.5303 -49.4106 -40.5184
176 1 -16.4707 -46.5225 -40.4746
4894 1 -19.4313 -49.442 -37.647
4900 1 -16.5708 -49.4462 -37.6515
181 1 -13.6128 -46.53 -40.4738
179 1 -13.6659 -49.413 -40.5165
4903 1 -15.0915 -47.9876 -39.0626
4906 1 -13.7045 -49.4467 -37.6476
184 1 -10.7946 -49.413 -40.5059
4909 1 -12.2262 -47.9896 -39.0566
186 1 -10.7475 -46.5331 -40.4649
189 1 -7.91949 -49.4113 -40.49
4915 1 -9.35568 -47.989 -39.044
191 1 -7.87747 -46.5334 -40.4507
4921 1 -6.48213 -47.9866 -39.0269
195 1 -5.005 -46.5318 -40.4334
194 1 -5.043 -49.4084 -40.4709
4927 1 -3.60701 -47.9831 -39.007
200 1 -2.13117 -46.5291 -40.4141
199 1 -2.16604 -49.4046 -40.4499
4933 1 -0.730915 -47.9789 -38.9855
205 1 0.743592 -46.5259 -40.3934
204 1 0.711191 -49.4004 -40.4277
4939 1 2.14592 -47.9745 -38.9628
209 1 3.5887 -49.3963 -40.4046
4945 1 5.0232 -47.9703 -38.9391
214 1 6.46649 -49.3928 -40.3806
215 1 6.49507 -46.5203 -40.3489
210 1 3.6191 -46.5228 -40.3717
219 1 9.34451 -49.3904 -40.3556
4951 1 7.90063 -47.9669 -38.9144
220 1 9.3713 -46.5187 -40.325
224 1 12.2224 -49.3894 -40.3296
4957 1 10.778 -47.9646 -38.8885
225 1 12.2474 -46.5185 -40.3002
229 1 15.0997 -49.3902 -40.303
4963 1 13.6548 -47.9637 -38.8616
230 1 15.1228 -46.52 -40.2747
4969 1 16.5304 -47.9646 -38.8343
235 1 17.9968 -46.5234 -40.2492
234 1 17.9755 -49.3929 -40.2765
4975 1 19.4041 -47.9673 -38.807
240 1 20.8686 -46.5287 -40.2243
239 1 20.8494 -49.3975 -40.2507
4981 1 22.2752 -47.972 -38.7804
244 1 23.7208 -49.4042 -40.226
4987 1 25.1433 -47.9791 -38.7549
245 1 23.7378 -46.5361 -40.2004
249 1 26.5895 -49.4136 -40.2027
250 1 26.6039 -46.5462 -40.1778
254 1 29.4549 -49.4266 -40.1804
4993 1 28.0078 -47.9894 -38.7305
255 1 29.4661 -46.5599 -40.156
4681 1 -20.9641 -53.7934 -36.2763
4682 1 -20.9105 -50.9033 -36.2323
4679 1 -22.3888 -52.3653 -34.8166
4685 1 -18.1017 -53.7895 -36.2851
4686 1 -18.0493 -50.9056 -36.24
4683 1 -19.5259 -52.3655 -34.8271
4687 1 -16.659 -52.3629 -34.8284
4689 1 -15.2312 -53.7843 -36.2823
4690 1 -15.1824 -50.9045 -36.2384
4691 1 -13.7875 -52.3584 -34.8213
4693 1 -12.3556 -53.7785 -36.2711
4694 1 -12.3109 -50.9014 -36.2292
4695 1 -10.9125 -52.3527 -34.8075
4697 1 -9.4769 -53.7725 -36.2538
4698 1 -9.43622 -50.897 -36.2141
4702 1 -6.59616 -53.7662 -36.2319
4703 1 -6.55922 -50.8916 -36.1945
4700 1 -8.03502 -52.3462 -34.7886
4706 1 -5.1194 -52.3121 -37.6373
4707 1 -3.71433 -53.7594 -36.2072
4708 1 -3.68085 -50.8855 -36.1719
4705 1 -5.15585 -52.3392 -34.7659
4712 1 -2.23877 -52.3062 -37.6131
4713 1 -0.832011 -53.752 -36.1808
4714 1 -0.801539 -50.8789 -36.1474
4711 1 -2.27554 -52.3314 -34.7409
4718 1 0.642086 -52.2998 -37.5877
4719 1 2.05035 -53.7444 -36.1535
4720 1 2.07837 -50.8719 -36.1217
4724 1 3.52288 -52.2934 -37.5615
4717 1 0.605473 -52.3233 -34.7142
4723 1 3.48676 -52.3151 -34.6865
4725 1 4.93245 -53.7369 -36.1255
4730 1 6.40348 -52.2874 -37.5346
4726 1 4.95843 -50.8652 -36.0949
4729 1 6.36791 -52.3074 -34.6578
4731 1 7.81414 -53.7301 -36.0967
4736 1 9.28383 -52.2824 -37.5068
4732 1 7.83829 -50.8591 -36.0672
4735 1 9.24863 -52.3005 -34.628
4737 1 10.6953 -53.7244 -36.0669
4742 1 12.1637 -52.2787 -37.4778
4738 1 10.7177 -50.8541 -36.0383
4741 1 12.1287 -52.2949 -34.5971
4743 1 13.5758 -53.7201 -36.0359
4748 1 15.0428 -52.2766 -37.4479
4744 1 13.5964 -50.8505 -36.0083
4749 1 16.4551 -53.7173 -36.0042
4750 1 16.4738 -50.8484 -35.9774
4747 1 15.0077 -52.2906 -34.565
4755 1 19.3329 -53.7161 -35.9722
4754 1 17.9205 -52.2762 -37.4177
4756 1 19.3493 -50.8479 -35.9463
4753 1 17.8852 -52.2878 -34.5323
4760 1 20.7961 -52.2776 -37.3879
4761 1 22.2086 -53.7166 -35.9407
4762 1 22.2222 -50.8492 -35.9156
4759 1 20.7606 -52.2864 -34.4994
4766 1 23.6692 -52.2809 -37.359
4767 1 25.0817 -53.719 -35.9103
4768 1 25.092 -50.8527 -35.8859
4772 1 26.5395 -52.2868 -37.3314
4778 1 29.4064 -52.2961 -37.3047
4773 1 27.952 -53.7243 -35.8811
4774 1 27.9583 -50.8594 -35.8571
4889 1 -22.2393 -46.5352 -37.6058
4888 1 -22.2857 -49.4328 -37.6329
4890 1 -20.8629 -48.0079 -36.199
4886 1 -22.348 -49.4711 -34.7869
4887 1 -22.3118 -46.5759 -34.766
4896 1 -18.0008 -48.0145 -36.2031
4895 1 -19.3804 -46.5466 -37.6127
4901 1 -16.5212 -46.5552 -37.6146
4893 1 -19.441 -46.5803 -34.7641
4892 1 -19.481 -49.4746 -34.7916
4898 1 -16.6146 -49.4761 -34.7909
4899 1 -16.5741 -46.5844 -34.7599
4907 1 -13.6587 -46.5599 -37.6105
4902 1 -15.1365 -48.0178 -36.2007
4904 1 -13.7456 -49.475 -34.7838
4905 1 -13.7068 -46.5864 -34.7515
4912 1 -10.8336 -49.445 -37.6368
4908 1 -12.2688 -48.018 -36.1921
4913 1 -10.7921 -46.5614 -37.6004
4910 1 -10.8737 -49.4718 -34.771
4911 1 -10.8377 -46.5861 -34.7387
4918 1 -7.95932 -49.4417 -37.6205
4914 1 -9.3978 -48.016 -36.1782
4919 1 -7.92173 -46.5604 -37.5853
4920 1 -6.5242 -48.0123 -36.1601
4917 1 -7.96617 -46.5836 -34.7219
4916 1 -7.99945 -49.4671 -34.7535
4925 1 -5.04881 -46.5577 -37.5667
4924 1 -5.08311 -49.4373 -37.6006
4926 1 -3.64886 -48.0076 -36.1391
4922 1 -5.12334 -49.4614 -34.7325
4923 1 -5.09263 -46.5796 -34.7019
4931 1 -2.17425 -46.554 -37.546
4930 1 -2.20579 -49.4322 -37.5784
4932 1 -0.772167 -48.0023 -36.1162
4929 1 -2.21754 -46.5749 -34.6798
4928 1 -2.24589 -49.455 -34.7092
4936 1 0.672332 -49.4266 -37.5548
4938 1 2.10558 -47.9967 -36.0918
4937 1 0.701588 -46.5498 -37.5237
4934 1 0.632719 -49.4481 -34.684
4935 1 0.658968 -46.5697 -34.6557
4940 1 3.51213 -49.441 -34.6574
4942 1 3.55097 -49.421 -37.5301
4944 1 4.98396 -47.9911 -36.066
4948 1 6.4297 -49.4158 -37.5043
4943 1 3.57834 -46.5455 -37.5
4949 1 6.45546 -46.5415 -37.4752
4946 1 6.39172 -49.4342 -34.6295
4947 1 6.41474 -46.5588 -34.6029
4941 1 3.53655 -46.5643 -34.6301
4954 1 9.30827 -49.4116 -37.4775
4950 1 7.86229 -47.986 -36.0391
4955 1 9.33244 -46.5382 -37.4493
4952 1 9.27094 -49.4282 -34.6005
4953 1 9.29277 -46.5538 -34.5745
4960 1 12.1864 -49.4086 -37.4496
4956 1 10.7402 -47.9819 -36.0111
4961 1 12.209 -46.536 -37.4222
4958 1 12.1495 -49.4233 -34.5704
4959 1 12.1702 -46.5496 -34.5451
4966 1 15.0637 -49.4071 -37.4207
4962 1 13.6174 -47.9789 -35.9819
4967 1 15.0847 -46.5353 -37.3942
4968 1 16.4932 -47.9774 -35.9518
4964 1 15.0269 -49.4196 -34.5391
4965 1 15.0463 -46.5466 -34.5144
4972 1 17.9393 -49.4073 -37.3914
4974 1 19.3665 -47.9774 -35.9212
4973 1 17.9586 -46.5361 -37.3656
4970 1 17.9025 -49.4174 -34.507
4971 1 17.9201 -46.5447 -34.4827
4978 1 20.8125 -49.4093 -37.3623
4980 1 22.2369 -47.9792 -35.8911
4979 1 20.8297 -46.5386 -37.3372
4976 1 20.7755 -49.4166 -34.4747
4984 1 23.6828 -49.4134 -37.3341
4986 1 25.104 -47.9834 -35.8618
4985 1 23.6977 -46.5433 -37.3095
4990 1 26.5499 -49.4203 -37.3071
4991 1 26.5621 -46.5509 -37.2828
4996 1 29.4128 -49.431 -37.2805
4992 1 27.967 -47.9909 -35.8332
4997 1 29.4216 -46.562 -37.2564
9709 1 -21.0005 -53.8254 -33.4122
9710 1 -20.9621 -50.9353 -33.3804
9706 1 -22.4455 -52.3966 -31.9709
9714 1 -18.1334 -53.8215 -33.4168
9715 1 -18.0925 -50.9348 -33.3809
9711 1 -19.5702 -52.3934 -31.9704
9716 1 -16.698 -52.3895 -31.9663
9719 1 -15.2625 -53.8158 -33.4126
9720 1 -15.2221 -50.9323 -33.3754
9721 1 -13.8246 -52.3841 -31.9563
9724 1 -12.3877 -53.8089 -33.4006
9725 1 -12.3495 -50.9279 -33.3638
9726 1 -10.9492 -52.3774 -31.9406
9730 1 -9.47451 -50.9222 -33.3471
9729 1 -9.51012 -53.8013 -33.3827
9731 1 -8.07184 -52.3696 -31.9203
9734 1 -6.63052 -53.7931 -33.3604
9735 1 -6.59771 -50.9154 -33.3263
9739 1 -3.7495 -53.7844 -33.335
9740 1 -3.71951 -50.9079 -33.3027
9736 1 -5.193 -52.3611 -31.8966
9744 1 -0.867585 -53.7751 -33.3078
9745 1 -0.840143 -50.8998 -33.2769
9741 1 -2.31299 -52.3519 -31.8705
9749 1 2.01472 -53.7657 -33.2792
9750 1 2.04008 -50.8913 -33.2495
9746 1 0.567896 -52.3422 -31.8425
9751 1 3.44931 -52.3324 -31.813
9754 1 4.89703 -53.7564 -33.2495
9755 1 4.9207 -50.8829 -33.2207
9756 1 6.33081 -52.3231 -31.7823
9759 1 7.77901 -53.7479 -33.2189
9760 1 7.80116 -50.8753 -33.1908
9761 1 9.21203 -52.3147 -31.7506
9764 1 10.6604 -53.7404 -33.1872
9765 1 10.6811 -50.8685 -33.1598
9766 1 12.0925 -52.3074 -31.7176
9769 1 13.541 -53.7342 -33.1543
9770 1 13.56 -50.8629 -33.1276
9775 1 16.4375 -50.8586 -33.0943
9774 1 16.4203 -53.7291 -33.1202
9771 1 14.9718 -52.3011 -31.6833
9779 1 19.2981 -53.7252 -33.0855
9780 1 19.313 -50.8555 -33.0603
9776 1 17.8495 -52.2958 -31.648
9784 1 22.1738 -53.7226 -33.051
9785 1 22.186 -50.8538 -33.0264
9781 1 20.7253 -52.2916 -31.6123
4765 1 23.6335 -52.2868 -34.4671
9789 1 25.0472 -53.7218 -33.0172
9790 1 25.056 -50.8541 -32.9932
4771 1 26.5033 -52.2897 -34.4358
9786 1 23.5987 -52.2887 -31.5768
9791 1 26.4693 -52.2879 -31.5422
4777 1 29.3695 -52.2959 -34.4052
9794 1 27.9177 -53.7236 -32.9844
9795 1 27.9224 -50.8573 -32.9607
9796 1 29.3365 -52.2899 -31.5082
9898 1 -22.3863 -46.6139 -31.933
9900 1 -20.9262 -48.0424 -33.3553
9897 1 -22.4157 -49.5058 -31.9499
9904 1 -18.0542 -48.0438 -33.351
9901 1 -19.5361 -49.5036 -31.9432
9905 1 -16.6624 -49.5019 -31.9355
9902 1 -19.5045 -46.6115 -31.9211
9906 1 -16.6296 -46.6109 -31.9096
9908 1 -15.1842 -48.0441 -33.3433
9909 1 -13.7896 -49.4989 -31.9241
9910 1 -13.7573 -46.6099 -31.8961
9912 1 -12.3134 -48.0424 -33.3312
9913 1 -10.9159 -49.4943 -31.9083
9914 1 -10.8849 -46.6075 -31.8797
9916 1 -9.44092 -48.0389 -33.315
9917 1 -8.04064 -49.4883 -31.8888
9918 1 -8.01151 -46.6035 -31.8604
9920 1 -6.56661 -48.0339 -33.2952
9924 1 -3.69085 -48.0279 -33.2728
9922 1 -5.13687 -46.5981 -31.8386
9921 1 -5.16411 -49.4813 -31.8663
9928 1 -0.813787 -48.0215 -33.2483
9925 1 -2.28644 -49.4736 -31.8414
9926 1 -2.26106 -46.5921 -31.8146
9932 1 2.06452 -48.0146 -33.222
9929 1 0.592443 -49.4653 -31.8144
9934 1 3.49415 -46.579 -31.7607
9933 1 3.4723 -49.4567 -31.7858
9930 1 0.616033 -46.5857 -31.7885
9936 1 4.94362 -48.0075 -33.194
9937 1 6.35254 -49.4484 -31.7556
9938 1 6.37314 -46.572 -31.7314
9940 1 7.82291 -48.0008 -33.1647
9941 1 9.23252 -49.4408 -31.7244
9942 1 9.25236 -46.5653 -31.7007
9944 1 10.7016 -47.9948 -33.1343
9945 1 12.1117 -49.434 -31.692
9946 1 12.1307 -46.5592 -31.6686
9948 1 13.5794 -47.9899 -33.1027
9952 1 16.4553 -47.986 -33.0699
9949 1 14.9895 -49.4284 -31.6584
9950 1 15.0073 -46.5538 -31.6351
9956 1 19.3288 -47.9834 -33.0364
9953 1 17.8654 -49.4238 -31.6236
9954 1 17.8814 -46.5493 -31.6007
9960 1 22.1993 -47.9821 -33.0029
4977 1 20.7911 -46.5442 -34.4508
9957 1 20.7388 -49.4202 -31.5884
9958 1 20.7529 -46.5459 -31.5659
4982 1 23.6454 -49.4177 -34.4429
9964 1 25.0664 -47.9831 -32.9701
4983 1 23.6586 -46.5458 -34.4194
4989 1 26.5224 -46.5501 -34.3888
4988 1 26.5119 -49.4216 -34.4121
9961 1 23.6093 -49.4181 -31.5535
9962 1 23.6212 -46.5441 -31.5314
9966 1 26.4857 -46.5444 -31.4975
9965 1 26.4766 -49.4182 -31.5193
4994 1 29.374 -49.4289 -34.3814
9968 1 27.9295 -47.9868 -32.9378
4995 1 29.3809 -46.5575 -34.358
9969 1 29.3397 -49.421 -31.4854
9970 1 29.3453 -46.5471 -31.4635
9707 1 -21.0494 -53.852 -30.5605
14224 1 -22.5114 -52.4247 -29.1369
9708 1 -21.0211 -50.9637 -30.5375
14230 1 -19.6229 -52.4172 -29.1222
9712 1 -18.1733 -53.8465 -30.5563
9713 1 -18.1415 -50.9596 -30.5281
14236 1 -16.743 -52.4113 -29.1098
9717 1 -15.2988 -53.8402 -30.5479
14242 1 -13.8659 -52.4047 -29.095
9718 1 -15.266 -50.9553 -30.5169
9722 1 -12.4231 -53.8325 -30.5336
14248 1 -10.9887 -52.3969 -29.0763
9723 1 -12.3909 -50.9497 -30.5017
9727 1 -9.54551 -53.8238 -30.5142
14254 1 -8.11068 -52.3881 -29.054
9728 1 -9.51473 -50.9428 -30.4826
9732 1 -6.66625 -53.8143 -30.4908
9733 1 -6.63739 -50.9348 -30.46
14260 1 -5.23162 -52.3785 -29.0288
9737 1 -3.78572 -53.8043 -30.4645
9738 1 -3.75903 -50.926 -30.4349
14266 1 -2.3517 -52.3681 -29.0012
9742 1 -0.904293 -53.7936 -30.4362
9743 1 -0.879647 -50.9165 -30.4076
14272 1 0.529031 -52.3571 -28.9718
9747 1 1.97771 -53.7826 -30.4062
9748 1 2.00072 -50.9066 -30.3784
14278 1 3.41048 -52.346 -28.9408
9752 1 4.86 -53.7719 -30.375
14284 1 6.29233 -52.3354 -28.9084
9753 1 4.88168 -50.8968 -30.3477
9757 1 7.7423 -53.7619 -30.3426
14290 1 9.17421 -52.3256 -28.8747
9758 1 7.76276 -50.8876 -30.3158
9762 1 10.6242 -53.7529 -30.3089
14296 1 12.0554 -52.3167 -28.8397
9763 1 10.6434 -50.8793 -30.2827
9768 1 13.5229 -50.872 -30.2483
9767 1 13.5052 -53.7448 -30.2739
14302 1 14.9355 -52.3085 -28.8032
9773 1 16.4009 -50.8655 -30.2126
9772 1 16.3849 -53.7375 -30.2375
9777 1 19.2632 -53.7309 -30.2003
9778 1 19.2771 -50.8599 -30.176
14308 1 17.814 -52.3009 -28.7655
9782 1 22.1398 -53.7251 -30.1629
9783 1 22.1509 -50.8551 -30.1393
14314 1 20.6908 -52.2937 -28.7271
9787 1 25.0143 -53.7207 -30.1262
9788 1 25.0221 -50.8517 -30.103
14320 1 23.5657 -52.2873 -28.689
14324 1 26.4381 -52.2823 -28.6516
9792 1 27.8862 -53.7183 -30.0903
9793 1 27.8901 -50.8504 -30.0675
14328 1 29.3077 -52.2791 -28.6152
14419 1 -22.4874 -49.537 -29.1204
9899 1 -20.993 -48.0739 -30.518
14420 1 -22.4618 -46.6482 -29.1056
14426 1 -19.5702 -46.6398 -29.0826
14425 1 -19.5962 -49.5295 -29.1009
9903 1 -18.1113 -48.0701 -30.5041
14431 1 -16.7145 -49.5242 -29.0847
14432 1 -16.6878 -46.6347 -29.063
14438 1 -13.8101 -46.6306 -29.0438
14437 1 -13.8369 -49.5191 -29.0676
9907 1 -15.2351 -48.0671 -30.4899
14444 1 -10.9341 -46.6261 -29.0233
14443 1 -10.9604 -49.5131 -29.0482
9911 1 -12.3605 -48.0634 -30.4734
14450 1 -8.05839 -46.6204 -29.0009
14449 1 -8.08359 -49.5058 -29.026
9915 1 -9.48572 -48.0584 -30.4541
9919 1 -6.61008 -48.052 -30.4321
14455 1 -5.20618 -49.4975 -29.0014
9923 1 -3.73357 -48.0447 -30.4078
14456 1 -5.18225 -46.6136 -28.9766
14462 1 -2.30547 -46.6062 -28.9502
14461 1 -2.32808 -49.4886 -28.9746
9927 1 -0.856007 -48.0369 -30.3813
14467 1 0.551155 -49.4789 -28.9457
9931 1 2.02279 -48.0285 -30.3528
14468 1 0.57245 -46.5983 -28.9218
14473 1 3.43148 -49.4689 -28.9152
14474 1 3.45128 -46.5901 -28.8919
14479 1 6.31231 -49.4592 -28.8833
9935 1 4.90248 -48.02 -30.3228
14480 1 6.33112 -46.5815 -28.8609
14486 1 9.21117 -46.5729 -28.8282
9939 1 7.7826 -48.0117 -30.2914
14485 1 9.19314 -49.45 -28.85
9943 1 10.6623 -48.004 -30.2587
14491 1 12.0732 -49.4417 -28.8154
14492 1 12.0903 -46.565 -28.7936
9947 1 13.5407 -47.9972 -30.2245
14497 1 14.9518 -49.4341 -28.7793
9951 1 16.4172 -47.9911 -30.1892
14498 1 14.9678 -46.5577 -28.7575
9955 1 19.2915 -47.9859 -30.1532
14503 1 17.8287 -49.4273 -28.7422
14504 1 17.8431 -46.5506 -28.7208
9959 1 22.163 -47.9816 -30.1171
14509 1 20.7034 -49.4209 -28.7046
14510 1 20.7161 -46.5444 -28.6839
14515 1 23.5861 -46.539 -28.647
9963 1 25.0313 -47.9787 -30.0813
14514 1 23.5754 -49.4152 -28.6671
14519 1 26.4446 -49.4109 -28.6302
14520 1 26.4527 -46.5348 -28.6106
9967 1 27.896 -47.9779 -30.0461
14524 1 29.3103 -49.4082 -28.5941
14525 1 29.3152 -46.5318 -28.5747
14223 1 -22.5812 -52.4488 -26.3094
14227 1 -21.1087 -53.8752 -27.72
14228 1 -21.0859 -50.9891 -27.7021
14229 1 -19.6824 -52.438 -26.2811
14233 1 -18.2217 -53.8669 -27.7035
14234 1 -18.1964 -50.9812 -27.6812
14235 1 -16.7942 -52.4294 -26.2585
14239 1 -15.3413 -53.8592 -27.6879
14241 1 -13.9119 -52.4211 -26.2371
14240 1 -15.3145 -50.9745 -27.6624
14245 1 -12.4627 -53.8507 -27.6697
14247 1 -11.0318 -52.4122 -26.2144
14246 1 -12.4357 -50.9674 -27.6424
14251 1 -9.58387 -53.8411 -27.6479
14253 1 -8.15221 -52.4024 -26.1893
14252 1 -9.55748 -50.9593 -27.6201
14257 1 -6.70421 -53.8307 -27.6228
14258 1 -6.67901 -50.9502 -27.5952
14259 1 -5.2724 -52.3919 -26.162
14263 1 -3.82372 -53.8196 -27.5951
14264 1 -3.80014 -50.9403 -27.5682
14265 1 -2.39218 -52.3806 -26.1328
14269 1 -0.94255 -53.8079 -27.5655
14270 1 -0.920539 -50.9298 -27.5392
14271 1 0.488701 -52.3686 -26.1019
14275 1 1.93922 -53.7957 -27.5343
14276 1 1.96008 -50.9186 -27.5084
14277 1 3.3704 -52.3564 -26.0696
14281 1 4.82156 -53.7838 -27.5017
14283 1 6.25281 -52.3445 -26.0359
14282 1 4.84151 -50.9075 -27.4762
14287 1 7.70428 -53.7724 -27.4677
14289 1 9.13548 -52.3335 -26.0007
14288 1 7.72328 -50.8971 -27.4427
14293 1 10.5869 -53.762 -27.4322
14295 1 12.0178 -52.323 -25.9637
14294 1 10.6048 -50.8873 -27.4076
14299 1 13.4688 -53.7522 -27.395
14301 1 14.8992 -52.313 -25.925
14300 1 13.4854 -50.8783 -27.3709
14305 1 16.3496 -53.7428 -27.3564
14306 1 16.3646 -50.8698 -27.3329
14307 1 17.7792 -52.3031 -25.885
14311 1 19.2291 -53.7336 -27.3169
14312 1 19.2421 -50.8616 -27.294
14313 1 20.6579 -52.2931 -25.8444
14317 1 22.1072 -53.7246 -27.2771
14318 1 22.1176 -50.8535 -27.2549
14319 1 23.5349 -52.2831 -25.8041
14321 1 24.9837 -53.7164 -27.2379
14322 1 24.9909 -50.8461 -27.2162
14323 1 26.4101 -52.2737 -25.7647
14325 1 27.8581 -53.7093 -27.1998
14327 1 29.2829 -52.265 -25.7267
14326 1 27.8616 -50.8398 -27.1786
14418 1 -22.5364 -46.6778 -26.281
14417 1 -22.56 -49.5639 -26.2951
14422 1 -21.0621 -48.1019 -27.6857
14424 1 -19.6373 -46.6648 -26.2476
14423 1 -19.6599 -49.5523 -26.2635
14428 1 -18.1717 -48.0935 -27.6614
14429 1 -16.7706 -49.5437 -26.2378
14430 1 -16.7482 -46.6558 -26.2195
14435 1 -13.8877 -49.5361 -26.2141
14434 1 -15.2891 -48.0873 -27.6398
14436 1 -13.8652 -46.6486 -26.194
14442 1 -10.9855 -46.6419 -26.1688
14441 1 -11.0078 -49.5284 -26.1901
14440 1 -12.4102 -48.0813 -27.6182
14448 1 -8.10721 -46.6345 -26.1429
14447 1 -8.12886 -49.5198 -26.1647
14446 1 -9.53266 -48.0746 -27.5953
14452 1 -6.65527 -48.0669 -27.5705
14454 1 -5.22933 -46.6263 -26.1157
14453 1 -5.25016 -49.5104 -26.1376
14458 1 -3.77772 -48.0584 -27.5438
14460 1 -2.35135 -46.6176 -26.0869
14459 1 -2.3713 -49.5004 -26.1086
14464 1 -0.899436 -48.0493 -27.5151
14465 1 0.508531 -49.4897 -26.078
14470 1 1.98014 -48.0395 -27.4846
14466 1 0.527707 -46.6083 -26.0564
14471 1 3.38962 -49.4783 -26.046
14472 1 3.40775 -46.5985 -26.0247
14477 1 6.27133 -49.4673 -26.0126
14476 1 4.86065 -48.0294 -27.4529
14478 1 6.28866 -46.5881 -25.9919
14483 1 9.15305 -49.4568 -25.9778
14482 1 7.74159 -48.0196 -27.4199
14484 1 9.16935 -46.5777 -25.9574
14489 1 12.0342 -49.4469 -25.9412
14488 1 10.622 -48.0103 -27.3851
14490 1 12.0494 -46.5683 -25.921
14495 1 14.9143 -49.4375 -25.903
14494 1 13.5015 -48.0017 -27.3487
14500 1 16.3794 -47.9936 -27.3111
14496 1 14.9285 -46.5591 -25.8832
14501 1 17.793 -49.4284 -25.8637
14506 1 19.2553 -47.9859 -27.273
14502 1 17.8058 -46.5498 -25.8447
14507 1 20.6696 -49.4191 -25.8239
14511 1 22.1287 -47.9782 -27.2346
14508 1 20.6811 -46.5406 -25.8058
14518 1 26.4234 -46.522 -25.729
14516 1 24.9993 -47.9712 -27.1966
14512 1 23.5439 -49.4096 -25.7843
14517 1 26.4161 -49.4005 -25.7455
14513 1 23.5536 -46.5312 -25.767
14521 1 27.867 -47.965 -27.1595
14522 1 29.2855 -49.3919 -25.7082
14523 1 29.2902 -46.5128 -25.6924
19254 1 -22.6504 -52.469 -23.4831
14225 1 -21.1731 -53.8949 -24.8857
14226 1 -21.153 -51.0109 -24.8707
19258 1 -19.7452 -52.4556 -23.4438
19256 1 -21.2193 -51.0289 -22.0396
19255 1 -21.2383 -53.911 -22.0528
14231 1 -18.2773 -53.8841 -24.8571
14232 1 -18.2557 -50.9998 -24.8388
19262 1 -16.8503 -52.4445 -23.4114
19260 1 -18.3174 -51.0153 -21.9988
19259 1 -18.3369 -53.8981 -22.0144
14237 1 -15.3899 -53.8744 -24.8327
19266 1 -13.9626 -52.4344 -23.3826
14238 1 -15.3674 -50.9905 -24.8115
19264 1 -15.4239 -51.0037 -21.9635
19263 1 -15.4437 -53.8866 -21.9814
14243 1 -12.5071 -53.8646 -24.8089
19270 1 -11.0788 -52.4241 -23.3547
14244 1 -12.4842 -50.9816 -24.7857
19267 1 -12.5562 -53.8754 -21.9511
19268 1 -12.5363 -50.9931 -21.9314
14249 1 -9.62589 -53.8542 -24.7835
14250 1 -9.60325 -50.9723 -24.7594
19274 1 -8.19689 -52.4133 -23.3262
14255 1 -6.74503 -53.843 -24.756
14256 1 -6.72312 -50.9621 -24.7317
19272 1 -9.65216 -50.9823 -21.9006
19271 1 -9.67186 -53.8639 -21.9213
19276 1 -6.76982 -50.9711 -21.8695
19275 1 -6.78902 -53.8519 -21.8908
19278 1 -5.31571 -52.4019 -23.2964
14261 1 -3.86402 -53.8311 -24.7266
14262 1 -3.84325 -50.9513 -24.7023
19279 1 -3.90677 -53.8393 -21.8591
19280 1 -3.88838 -50.9594 -21.8376
19282 1 -2.4346 -52.3897 -23.2651
14267 1 -0.982607 -53.8185 -24.6955
14268 1 -0.96298 -50.9398 -24.6715
19283 1 -1.0244 -53.8258 -21.8263
19284 1 -1.00683 -50.9471 -21.8048
19286 1 0.447012 -52.3769 -23.2327
14273 1 1.89939 -53.8053 -24.663
14274 1 1.91826 -50.9277 -24.6394
19290 1 3.32946 -52.3637 -23.1993
19287 1 1.8585 -53.8118 -21.7926
19288 1 1.87559 -50.9341 -21.7713
14279 1 4.78211 -53.7923 -24.6293
19294 1 6.21269 -52.3508 -23.1646
14280 1 4.80046 -50.9154 -24.606
14285 1 7.66543 -53.7797 -24.5941
19298 1 9.09638 -52.3384 -23.1282
14286 1 7.68318 -50.9038 -24.5712
14291 1 10.549 -53.7679 -24.557
19302 1 11.98 -52.3265 -23.0895
14292 1 10.5658 -50.8927 -24.5346
14297 1 13.4322 -53.7565 -24.5179
14298 1 13.4479 -50.882 -24.496
19306 1 14.8631 -52.3148 -23.0488
14303 1 16.3146 -53.7451 -24.4771
14304 1 16.3289 -50.8715 -24.4558
14309 1 19.196 -53.7334 -24.4354
19310 1 17.7453 -52.3027 -23.0067
14310 1 19.2085 -50.8607 -24.4147
19314 1 20.6264 -52.2899 -22.9642
14315 1 22.0765 -53.7214 -24.3936
14316 1 22.0864 -50.8494 -24.3735
19318 1 23.5064 -52.2765 -22.9222
19321 1 24.9556 -53.7093 -24.3526
19324 1 26.3848 -52.2629 -22.8813
19322 1 24.9626 -50.8379 -24.3331
19327 1 27.833 -53.6976 -24.3128
19330 1 29.261 -52.2488 -22.8421
19328 1 27.8367 -50.8265 -24.2941
19444 1 -22.6303 -49.5863 -23.4698
14421 1 -21.1315 -48.1259 -24.8559
19445 1 -22.6076 -46.7021 -23.4557
19449 1 -19.7249 -49.5717 -23.4285
19450 1 -19.7042 -46.686 -23.4139
19446 1 -21.1989 -48.1457 -22.0256
19455 1 -16.81 -46.6737 -23.378
14427 1 -18.2344 -48.1139 -24.8219
19454 1 -16.8298 -49.5601 -23.3939
19451 1 -18.2978 -48.1309 -21.9837
19459 1 -13.9419 -49.5502 -23.3632
14433 1 -15.3459 -48.1046 -24.7926
19460 1 -13.9225 -46.6638 -23.3461
19456 1 -15.4049 -48.119 -21.9472
19465 1 -11.0391 -46.6549 -23.3159
19464 1 -11.0582 -49.5407 -23.3341
14439 1 -12.4627 -48.0963 -24.7652
19461 1 -12.5176 -48.1085 -21.914
19470 1 -8.15806 -46.6458 -23.2862
19469 1 -8.1767 -49.5308 -23.3049
14445 1 -9.58202 -48.0879 -24.738
14451 1 -6.70256 -48.0788 -24.71
19466 1 -9.63377 -48.0983 -21.8823
19471 1 -6.75194 -48.0879 -21.8507
19474 1 -5.29627 -49.5203 -23.2748
14457 1 -3.82362 -48.0691 -24.6807
19475 1 -5.27819 -46.6362 -23.2559
19476 1 -3.87117 -48.0772 -21.8186
19480 1 -2.39866 -46.6265 -23.2247
19479 1 -2.41617 -49.5094 -23.2436
14463 1 -0.944303 -48.059 -24.65
19481 1 -0.990337 -48.0662 -21.7859
19484 1 0.464722 -49.4977 -23.2113
14469 1 1.93633 -48.048 -24.618
19485 1 0.481708 -46.6161 -23.1926
19490 1 3.36316 -46.6051 -23.1593
19489 1 3.34686 -49.4854 -23.1781
19494 1 6.22976 -49.4732 -23.1437
14475 1 4.81808 -48.0366 -24.5848
19495 1 6.24538 -46.5934 -23.1246
19499 1 9.11273 -49.4614 -23.1075
14481 1 7.70007 -48.0253 -24.5502
19500 1 9.12744 -46.5815 -23.0886
19504 1 11.9954 -49.45 -23.0695
14487 1 10.5815 -48.0145 -24.514
19505 1 12.0091 -46.5704 -23.0513
19510 1 14.8902 -46.5592 -23.0126
14493 1 13.4625 -48.0043 -24.476
19509 1 14.8774 -49.4387 -23.0295
14499 1 16.3425 -47.9941 -24.4366
19515 1 17.7698 -46.5474 -22.9724
19514 1 17.7582 -49.4273 -22.9882
14505 1 19.2206 -47.9837 -24.3964
19520 1 20.6477 -46.5349 -22.9317
19519 1 20.6374 -49.415 -22.9465
19522 1 22.0965 -47.9726 -24.3561
19525 1 23.5148 -49.4017 -22.9053
19528 1 24.9702 -47.9611 -24.3165
19531 1 26.3905 -49.388 -22.8654
19526 1 23.5234 -46.5215 -22.8916
19532 1 26.3971 -46.5072 -22.8529
19537 1 29.264 -49.3735 -22.8274
19534 1 27.8417 -47.9495 -24.2783
19538 1 29.2686 -46.4917 -22.8163
19253 1 -22.7161 -52.4851 -20.6537
23856 1 -21.3016 -53.9236 -19.2177
23857 1 -21.2831 -51.0431 -19.2057
19257 1 -19.8084 -52.4698 -20.6071
19261 1 -16.9093 -52.4568 -20.5667
23862 1 -18.3977 -53.9091 -19.1726
23863 1 -18.3793 -51.0278 -19.1588
19265 1 -14.017 -52.4449 -20.5309
23868 1 -15.5007 -53.8961 -19.1326
23869 1 -15.4825 -51.0144 -19.1171
19269 1 -11.1294 -52.4333 -20.4975
23875 1 -12.5912 -51.0021 -19.0792
23874 1 -12.6092 -53.8837 -19.0961
23880 1 -9.72143 -53.8712 -19.0615
23881 1 -9.70379 -50.99 -19.0436
19273 1 -8.2447 -52.4214 -20.465
23886 1 -6.83602 -53.8584 -19.0275
23887 1 -6.81886 -50.9778 -19.0089
19277 1 -5.3615 -52.4091 -20.4322
23892 1 -3.9518 -53.8449 -18.9932
23893 1 -3.93529 -50.9652 -18.9742
19281 1 -2.47883 -52.3962 -20.3987
23898 1 -1.06774 -53.8306 -18.9585
23899 1 -1.05185 -50.9521 -18.9394
19285 1 0.404214 -52.3825 -20.3647
19289 1 3.28797 -52.3684 -20.33
23904 1 1.81671 -53.8157 -18.9233
23905 1 1.83227 -50.9383 -18.9043
19291 1 4.74209 -53.7977 -21.7579
19293 1 6.1724 -52.3544 -20.2943
19292 1 4.75893 -50.9209 -21.7369
23910 1 4.70168 -53.8006 -18.8874
23911 1 4.71717 -50.9242 -18.8687
19295 1 7.62629 -53.784 -21.7216